TITLE = "title"
VARIABLES = "X","rhoN2","rhoO2","rhoNO","rhoN","rhoO","u","T","Tv","P","M","YN2","YO2","YNO","YN","YO"
ZONE I=150, DATAPACKING=POINT
0.005000	0.000245	0.000075	0.000000	-0.000000	0.000000	3499.062835	347.123618	298.150001	32.003381	9.395551	0.764300	0.235700	0.000000	-0.000000	0.000000
0.015000	0.000255	0.000079	0.000000	-0.000000	0.000000	3497.399971	352.756890	298.150002	33.865466	9.315799	0.764300	0.235700	0.000000	-0.000000	0.000000
0.025000	0.000265	0.000082	0.000000	-0.000000	0.000000	3495.710455	358.477705	298.150004	35.834567	9.236702	0.764300	0.235700	0.000000	-0.000000	0.000000
0.035000	0.000276	0.000085	0.000000	-0.000000	0.000000	3493.994688	364.284581	298.150006	37.915762	9.158291	0.764300	0.235700	0.000000	-0.000000	0.000000
0.045000	0.000287	0.000089	0.000000	-0.000000	0.000000	3492.253166	370.175707	298.150009	40.114176	9.080596	0.764300	0.235700	0.000000	-0.000000	0.000000
0.055000	0.000299	0.000092	0.000000	-0.000000	0.000000	3490.486489	376.148923	298.150012	42.434944	9.003650	0.764300	0.235700	0.000000	-0.000000	0.000000
0.065000	0.000312	0.000096	0.000000	-0.000000	0.000000	3488.695374	382.201684	298.150016	44.883175	8.927489	0.764300	0.235700	0.000000	-0.000000	0.000000
0.075000	0.000324	0.000100	0.000000	-0.000000	0.000000	3486.880654	388.331043	298.150021	47.463906	8.852147	0.764300	0.235700	0.000000	-0.000000	0.000000
0.085000	0.000337	0.000104	0.000000	-0.000000	0.000000	3485.043295	394.533615	298.150027	50.182043	8.777660	0.764300	0.235700	0.000000	-0.000000	0.000000
0.095000	0.000351	0.000108	0.000000	-0.000000	0.000000	3483.184403	400.805556	298.150035	53.042306	8.704066	0.764300	0.235700	0.000000	-0.000000	0.000000
0.105000	0.000365	0.000113	0.000000	-0.000000	0.000000	3481.305227	407.142532	298.150044	56.049155	8.631404	0.764300	0.235700	0.000000	-0.000000	0.000000
0.115000	0.000380	0.000117	0.000000	-0.000000	0.000000	3479.407175	413.539690	298.150055	59.206716	8.559714	0.764300	0.235700	0.000000	-0.000000	0.000000
0.125000	0.000395	0.000122	0.000000	-0.000000	0.000000	3477.491819	419.991633	298.150069	62.518695	8.489036	0.764300	0.235700	0.000000	-0.000000	0.000000
0.135000	0.000410	0.000127	0.000000	0.000000	0.000000	3475.560904	426.492394	298.150085	65.988282	8.419413	0.764300	0.235700	0.000000	0.000000	0.000000
0.145000	0.000427	0.000132	0.000000	0.000000	0.000000	3473.616353	433.035410	298.150104	69.618049	8.350889	0.764300	0.235700	0.000000	0.000000	0.000000
0.155000	0.000443	0.000137	0.000000	-0.000000	0.000000	3471.660281	439.613499	298.150126	73.409838	8.283508	0.764300	0.235700	0.000000	-0.000000	0.000000
0.165000	0.000460	0.000142	0.000000	0.000000	0.000000	3469.694996	446.218840	298.150153	77.364644	8.217315	0.764300	0.235700	0.000000	0.000000	0.000000
0.175000	0.000477	0.000147	0.000000	0.000000	0.000000	3467.723007	452.842952	298.150184	81.482483	8.152357	0.764300	0.235700	0.000000	0.000000	0.000000
0.185000	0.000495	0.000153	0.000000	-0.000000	0.000000	3465.747030	459.476684	298.150221	85.762269	8.088681	0.764300	0.235700	0.000000	-0.000000	0.000000
0.195000	0.000513	0.000158	0.000000	-0.000000	0.000000	3463.769990	466.110202	298.150264	90.201669	8.026336	0.764300	0.235700	0.000000	-0.000000	0.000000
0.205000	0.000532	0.000164	0.000000	-0.000000	0.000000	3461.795024	472.732981	298.150314	94.796968	7.965370	0.764300	0.235700	0.000000	-0.000000	0.000000
0.215000	0.000551	0.000170	0.000000	-0.000000	0.000000	3459.825482	479.333810	298.150371	99.542929	7.905835	0.764300	0.235700	0.000000	-0.000000	0.000000
0.225000	0.000570	0.000176	0.000000	-0.000000	0.000000	3457.864926	485.900791	298.150437	104.432659	7.847780	0.764300	0.235700	0.000000	-0.000000	0.000000
0.235000	0.000590	0.000182	0.000000	-0.000000	0.000000	3455.917127	492.421357	298.150512	109.457473	7.791256	0.764300	0.235700	0.000000	-0.000000	0.000000
0.245000	0.000609	0.000188	0.000000	-0.000000	0.000000	3453.986058	498.882289	298.150597	114.606779	7.736314	0.764300	0.235700	0.000000	-0.000000	0.000000
0.255000	0.000629	0.000194	0.000000	-0.000000	0.000000	3452.075888	505.269746	298.150694	119.867967	7.683008	0.764300	0.235700	0.000000	-0.000000	0.000000
0.265000	0.000649	0.000200	0.000000	-0.000000	0.000000	3450.190970	511.569297	298.150803	125.226325	7.631387	0.764300	0.235700	0.000000	-0.000000	0.000000
0.275000	0.000670	0.000206	0.000000	-0.000000	0.000000	3448.335829	517.765975	298.150926	130.664966	7.581504	0.764300	0.235700	0.000000	-0.000000	0.000000
0.285000	0.000690	0.000213	0.000000	-0.000000	0.000000	3446.515142	523.844323	298.151062	136.164798	7.533411	0.764300	0.235700	0.000000	-0.000000	0.000000
0.295000	0.000710	0.000219	0.000000	0.000000	0.000000	3444.733724	529.788467	298.151213	141.704516	7.487158	0.764300	0.235700	0.000000	0.000000	0.000000
0.305000	0.000729	0.000225	0.000000	-0.000000	0.000000	3442.996501	535.582185	298.151380	147.260635	7.442796	0.764300	0.235700	0.000000	-0.000000	0.000000
0.315000	0.000749	0.000231	0.000000	0.000000	0.000000	3441.308485	541.208996	298.151562	152.807567	7.400374	0.764300	0.235700	0.000000	0.000000	0.000000
0.325000	0.000768	0.000237	0.000000	0.000000	0.000000	3439.674746	546.652253	298.151762	158.317739	7.359942	0.764300	0.235700	0.000000	0.000000	0.000000
0.335000	0.000787	0.000243	0.000000	0.000000	0.000000	3438.100381	551.895244	298.151979	163.761767	7.321546	0.764300	0.235700	0.000000	0.000000	0.000000
0.345000	0.000806	0.000248	0.000000	0.000000	0.000000	3436.590478	556.921308	298.152213	169.108673	7.285233	0.764300	0.235700	0.000000	0.000000	0.000000
0.355000	0.000823	0.000254	0.000000	0.000000	0.000000	3435.150080	561.713950	298.152465	174.326159	7.251046	0.764300	0.235700	0.000000	0.000000	0.000000
0.365000	0.000840	0.000259	0.000000	0.000000	0.000000	3433.784148	566.256965	298.152734	179.380926	7.219029	0.764300	0.235700	0.000000	0.000000	0.000000
0.375000	0.000857	0.000264	0.000000	0.000000	0.000000	3432.497519	570.534574	298.153020	184.239047	7.189221	0.764300	0.235700	0.000000	0.000000	0.000000
0.385000	0.000872	0.000269	0.000000	0.000000	0.000000	3431.294863	574.531549	298.153322	188.866374	7.161660	0.764300	0.235700	0.000000	0.000000	0.000000
0.395000	0.000887	0.000273	0.000000	0.000000	-0.000000	3430.180647	578.233350	298.153640	193.228993	7.136381	0.764300	0.235700	0.000000	0.000000	-0.000000
0.405000	0.000900	0.000278	0.000000	-0.000000	-0.000000	3429.159089	581.626256	298.153973	197.293694	7.113416	0.764300	0.235700	0.000000	-0.000000	-0.000000
0.415000	0.000912	0.000281	0.000000	-0.000000	-0.000000	3428.234117	584.697497	298.154320	201.028469	7.092795	0.764300	0.235700	0.000000	-0.000000	-0.000000
0.425000	0.000923	0.000285	0.000000	-0.000000	-0.000000	3427.409335	587.435375	298.154679	204.403013	7.074545	0.764300	0.235700	0.000000	-0.000000	-0.000000
0.435000	0.000933	0.000288	0.000000	-0.000000	-0.000000	3426.687981	589.829381	298.155049	207.389224	7.058687	0.764300	0.235700	0.000000	-0.000000	-0.000000
0.445000	0.000941	0.000290	0.000000	-0.000000	-0.000000	3426.072898	591.870303	298.155429	209.961675	7.045242	0.764300	0.235700	0.000000	-0.000000	-0.000000
0.455000	0.000948	0.000292	0.000000	-0.000000	-0.000000	3425.566500	593.550320	298.155817	212.098067	7.034224	0.764300	0.235700	0.000000	-0.000000	-0.000000
0.465000	0.000953	0.000294	-0.000000	0.000000	-0.000000	3425.170750	594.863084	298.156210	213.779626	7.025646	0.764300	0.235700	-0.000000	0.000000	-0.000000
0.475000	0.000957	0.000295	-0.000000	0.000000	-0.000000	3424.887135	595.803787	298.156609	214.991451	7.019517	0.764300	0.235700	-0.000000	0.000000	-0.000000
0.485000	0.000960	0.000296	-0.000000	0.000000	-0.000000	3424.716654	596.369209	298.157009	215.722789	7.015839	0.764300	0.235700	-0.000000	0.000000	-0.000000
0.495000	0.000960	0.000296	-0.000000	0.000000	-0.000000	3424.659807	596.557750	298.157411	215.967242	7.014614	0.764300	0.235700	-0.000000	0.000000	-0.000000
0.505000	0.000960	0.000296	-0.000000	-0.000000	-0.000000	3424.716588	596.369446	298.157811	215.722879	7.015837	0.764300	0.235700	-0.000000	-0.000000	-0.000000
0.515000	0.000957	0.000295	-0.000000	-0.000000	-0.000000	3424.886489	595.805962	298.158208	214.992276	7.019503	0.764300	0.235700	-0.000000	-0.000000	-0.000000
0.525000	0.000953	0.000294	-0.000000	-0.000000	-0.000000	3425.168507	594.870572	298.158599	213.782457	7.025598	0.764300	0.235700	-0.000000	-0.000000	-0.000000
0.535000	0.000948	0.000292	-0.000000	-0.000000	-0.000000	3425.561155	593.568116	298.158985	212.104757	7.034108	0.764300	0.235700	-0.000000	-0.000000	-0.000000
0.545000	0.000941	0.000290	-0.000000	-0.000000	-0.000000	3426.062482	591.904943	298.159362	209.974602	7.045014	0.764300	0.235700	-0.000000	-0.000000	-0.000000
0.555000	0.000933	0.000288	-0.000000	0.000000	-0.000000	3426.670093	589.888839	298.159729	207.411213	7.058295	0.764300	0.235700	-0.000000	0.000000	-0.000000
0.565000	0.000923	0.000285	-0.000000	0.000000	-0.000000	3427.381179	587.528940	298.160084	204.437249	7.073923	0.764300	0.235700	-0.000000	0.000000	-0.000000
0.575000	0.000912	0.000281	-0.000000	0.000000	-0.000000	3428.192548	584.835630	298.160427	201.078399	7.091872	0.764300	0.235700	-0.000000	0.000000	-0.000000
0.585000	0.000900	0.000278	-0.000000	0.000000	-0.000000	3429.100658	581.820434	298.160756	197.362924	7.112108	0.764300	0.235700	-0.000000	0.000000	-0.000000
0.595000	0.000887	0.000273	-0.000000	0.000000	-0.000000	3430.101655	578.495900	298.161070	193.321182	7.134597	0.764300	0.235700	-0.000000	0.000000	-0.000000
0.605000	0.000872	0.000269	-0.000000	0.000000	-0.000000	3431.191410	574.875474	298.161368	188.985131	7.159301	0.764300	0.235700	-0.000000	0.000000	-0.000000
0.615000	0.000857	0.000264	-0.000000	0.000000	-0.000000	3432.365564	570.973371	298.161650	184.387833	7.186182	0.764300	0.235700	-0.000000	0.000000	-0.000000
0.625000	0.000840	0.000259	-0.000000	0.000000	-0.000000	3433.619560	566.804447	298.161915	179.562966	7.215196	0.764300	0.235700	-0.000000	0.000000	-0.000000
0.635000	0.000823	0.000254	-0.000000	0.000000	-0.000000	3434.948692	562.384071	298.162163	174.544362	7.246300	0.764300	0.235700	-0.000000	0.000000	-0.000000
0.645000	0.000806	0.000248	-0.000000	0.000000	-0.000000	3436.348140	557.727993	298.162394	169.365566	7.279449	0.764300	0.235700	-0.000000	0.000000	-0.000000
0.655000	0.000787	0.000243	0.000000	0.000000	-0.000000	3437.813008	552.852223	298.162609	164.059441	7.314595	0.764300	0.235700	0.000000	0.000000	-0.000000
0.665000	0.000768	0.000237	0.000000	0.000000	-0.000000	3439.338364	547.772913	298.162806	158.657813	7.351690	0.764300	0.235700	0.000000	0.000000	-0.000000
0.675000	0.000749	0.000231	-0.000000	0.000000	-0.000000	3440.919271	542.506244	298.162987	153.191164	7.390685	0.764300	0.235700	-0.000000	0.000000	-0.000000
0.685000	0.000730	0.000225	0.000000	0.000000	-0.000000	3442.550822	537.068321	298.163152	147.688372	7.431529	0.764300	0.235700	0.000000	0.000000	-0.000000
0.695000	0.000710	0.000219	0.000000	0.000000	-0.000000	3444.228167	531.475078	298.163302	142.176506	7.474171	0.764300	0.235700	0.000000	0.000000	-0.000000
0.705000	0.000690	0.000213	0.000000	0.000000	-0.000000	3445.946542	525.742190	298.163438	136.680667	7.518560	0.764300	0.235700	0.000000	0.000000	-0.000000
0.715000	0.000670	0.000207	0.000000	0.000000	-0.000000	3447.701294	519.884993	298.163560	131.223874	7.564645	0.764300	0.235700	0.000000	0.000000	-0.000000
0.725000	0.000650	0.000200	-0.000000	0.000000	-0.000000	3449.487895	513.918419	298.163669	125.827004	7.612374	0.764300	0.235700	-0.000000	0.000000	-0.000000
0.735000	0.000630	0.000194	-0.000000	0.000000	-0.000000	3451.301970	507.856933	298.163767	120.508757	7.661695	0.764300	0.235700	-0.000000	0.000000	-0.000000
0.745000	0.000610	0.000188	0.000000	0.000000	-0.000000	3453.139302	501.714486	298.163853	115.285674	7.712556	0.764300	0.235700	0.000000	0.000000	-0.000000
0.755000	0.000590	0.000182	0.000000	0.000000	-0.000000	3454.995853	495.504468	298.163929	110.172169	7.764908	0.764300	0.235700	0.000000	0.000000	-0.000000
0.765000	0.000570	0.000176	0.000000	0.000000	-0.000000	3456.867766	489.239683	298.163996	105.180605	7.818699	0.764300	0.235700	0.000000	0.000000	-0.000000
0.775000	0.000551	0.000170	-0.000000	0.000000	-0.000000	3458.751379	482.932317	298.164055	100.321374	7.873880	0.764300	0.235700	-0.000000	0.000000	-0.000000
0.785000	0.000532	0.000164	0.000000	0.000000	-0.000000	3460.643225	476.593924	298.164106	95.603010	7.930401	0.764300	0.235700	0.000000	0.000000	-0.000000
0.795000	0.000514	0.000158	0.000000	0.000000	-0.000000	3462.540037	470.235415	298.164150	91.032305	7.988214	0.764300	0.235700	0.000000	0.000000	-0.000000
0.805000	0.000495	0.000153	0.000000	0.000000	-0.000000	3464.438747	463.867051	298.164189	86.614436	8.047272	0.764300	0.235700	0.000000	0.000000	-0.000000
0.815000	0.000478	0.000147	0.000000	0.000000	-0.000000	3466.336489	457.498447	298.164222	82.353100	8.107528	0.764300	0.235700	0.000000	0.000000	-0.000000
0.825000	0.000460	0.000142	0.000000	0.000000	-0.000000	3468.230592	451.138576	298.164250	78.250645	8.168937	0.764300	0.235700	0.000000	0.000000	-0.000000
0.835000	0.000443	0.000137	0.000000	0.000000	-0.000000	3470.118581	444.795780	298.164274	74.308212	8.231454	0.764300	0.235700	0.000000	0.000000	-0.000000
0.845000	0.000622	0.000191	0.000000	0.000000	0.000000	2622.294724	3284.401296	809.302342	770.053911	2.218873	0.764257	0.235267	0.000091	0.000001	0.000384
0.855000	0.002125	0.000643	0.000003	0.000000	0.000012	760.144928	5869.949201	3029.267786	4723.443099	0.480083	0.763828	0.230962	0.000998	0.000007	0.004206
0.865000	0.002601	0.000751	0.000013	0.000000	0.000045	570.816553	5402.279716	3936.282912	5372.665814	0.373859	0.762443	0.220307	0.003901	0.000037	0.013313
0.875000	0.002863	0.000776	0.000036	0.000000	0.000093	490.142193	5037.675494	4318.531451	5591.030450	0.330316	0.759796	0.205959	0.009473	0.000082	0.024690
0.885000	0.003050	0.000770	0.000069	0.000001	0.000144	436.111194	4774.417619	4458.655567	5726.664341	0.300061	0.756242	0.191000	0.016994	0.000125	0.035638
0.895000	0.003187	0.000750	0.000107	0.000001	0.000191	396.391368	4581.540574	4485.249688	5819.620939	0.276950	0.752304	0.177021	0.025355	0.000161	0.045159
0.905000	0.003288	0.000723	0.000148	0.000001	0.000234	365.427188	4437.257118	4458.863625	5886.864320	0.258296	0.748393	0.164593	0.033673	0.000188	0.053152
0.915000	0.003365	0.000695	0.000187	0.000001	0.000270	340.183542	4326.723873	4408.999516	5937.585086	0.242618	0.744765	0.153798	0.041403	0.000208	0.059825
0.925000	0.003426	0.000668	0.000223	0.000001	0.000302	318.862956	4239.932503	4350.361267	5977.233903	0.229028	0.741547	0.144524	0.048266	0.000222	0.065440
0.935000	0.003475	0.000642	0.000255	0.000001	0.000330	300.349395	4170.121435	4290.306975	6009.193625	0.216965	0.738787	0.136593	0.054158	0.000232	0.070230
0.945000	0.003515	0.000620	0.000282	0.000001	0.000355	283.925052	4112.678261	4232.430797	6035.627684	0.206066	0.736482	0.129819	0.059080	0.000239	0.074379
0.955000	0.003550	0.000599	0.000305	0.000001	0.000377	269.113555	4064.417323	4178.361657	6057.956996	0.196087	0.734606	0.124030	0.063091	0.000244	0.078029
0.965000	0.003581	0.000582	0.000324	0.000001	0.000397	255.589066	4023.117070	4128.704887	6077.140056	0.186860	0.733116	0.119076	0.066276	0.000246	0.081286
0.975000	0.003608	0.000566	0.000339	0.000001	0.000415	243.121920	3987.233145	4083.558904	6093.841234	0.178264	0.731969	0.114829	0.068731	0.000248	0.084223
0.985000	0.003633	0.000553	0.000351	0.000001	0.000432	231.546369	3955.736186	4042.819730	6108.547651	0.170210	0.731118	0.111190	0.070554	0.000248	0.086890
0.995000	0.003657	0.000541	0.000360	0.000001	0.000447	220.803728	3928.038359	4006.384492	6122.353342	0.162676	0.730519	0.108086	0.071838	0.000248	0.089310
1.005000	0.003701	0.000535	0.000368	0.000001	0.000464	214.011391	3903.355475	3974.335389	6171.442944	0.157989	0.730133	0.105484	0.072666	0.000247	0.091470
1.015000	0.003718	0.000526	0.000373	0.000001	0.000476	212.646904	3880.435424	3945.560389	6175.271055	0.157281	0.729913	0.103262	0.073140	0.000246	0.093440
1.025000	0.003733	0.000518	0.000375	0.000001	0.000487	211.630212	3859.859968	3919.632193	6177.042233	0.156797	0.729823	0.101348	0.073335	0.000244	0.095249
1.035000	0.003746	0.000512	0.000376	0.000001	0.000498	210.737209	3841.222495	3896.169720	6178.496086	0.156376	0.729836	0.099686	0.073312	0.000242	0.096924
1.045000	0.003760	0.000506	0.000377	0.000001	0.000507	209.937126	3824.183737	3874.835975	6179.753964	0.156002	0.729928	0.098229	0.073119	0.000241	0.098484
1.055000	0.003772	0.000501	0.000376	0.000001	0.000516	209.212226	3808.481575	3855.338915	6180.859838	0.155665	0.730080	0.096941	0.072796	0.000239	0.099944
1.065000	0.003784	0.000496	0.000375	0.000001	0.000525	208.549243	3793.911284	3837.428578	6181.844436	0.155358	0.730279	0.095794	0.072373	0.000237	0.101317
1.075000	0.003795	0.000492	0.000373	0.000001	0.000533	207.937948	3780.310756	3820.892552	6182.730756	0.155077	0.730513	0.094763	0.071875	0.000236	0.102612
1.085000	0.003806	0.000489	0.000371	0.000001	0.000541	207.370337	3767.549968	3805.551023	6183.536335	0.154816	0.730774	0.093831	0.071322	0.000234	0.103840
1.095000	0.003816	0.000485	0.000369	0.000001	0.000548	206.840063	3755.523392	3791.252003	6184.274735	0.154574	0.731052	0.092981	0.070728	0.000232	0.105006
1.105000	0.003826	0.000482	0.000367	0.000001	0.000555	206.342033	3744.144446	3777.867029	6184.956585	0.154347	0.731344	0.092202	0.070108	0.000230	0.106117
1.115000	0.003836	0.000480	0.000364	0.000001	0.000562	205.872115	3733.341369	3765.287388	6185.590317	0.154134	0.731643	0.091482	0.069469	0.000229	0.107177
1.125000	0.003846	0.000477	0.000362	0.000001	0.000568	205.426924	3723.054131	3753.420901	6186.182696	0.153932	0.731947	0.090813	0.068822	0.000227	0.108191
1.135000	0.003855	0.000475	0.000359	0.000001	0.000575	205.003657	3713.232070	3742.189203	6186.739204	0.153741	0.732253	0.090188	0.068170	0.000226	0.109163
1.145000	0.003863	0.000473	0.000356	0.000001	0.000581	204.599979	3703.832083	3731.525459	6187.264326	0.153559	0.732558	0.089602	0.067520	0.000224	0.110096
1.155000	0.003872	0.000470	0.000353	0.000001	0.000586	204.213922	3694.817215	3721.372470	6187.761767	0.153385	0.732861	0.089049	0.066874	0.000223	0.110994
1.165000	0.003880	0.000468	0.000351	0.000001	0.000592	203.843819	3686.155551	3711.681098	6188.234608	0.153219	0.733160	0.088525	0.066237	0.000221	0.111857
1.175000	0.003888	0.000467	0.000348	0.000001	0.000597	203.488246	3677.819344	3702.408954	6188.685436	0.153059	0.733454	0.088027	0.065609	0.000220	0.112690
1.185000	0.003896	0.000465	0.000345	0.000001	0.000603	203.145979	3669.784311	3693.519322	6189.116437	0.152906	0.733743	0.087552	0.064993	0.000218	0.113493
1.195000	0.003903	0.000463	0.000342	0.000001	0.000608	202.815956	3662.029073	3684.980256	6189.529472	0.152758	0.734026	0.087098	0.064390	0.000217	0.114269
1.205000	0.003911	0.000462	0.000340	0.000001	0.000613	202.497255	3654.534700	3676.763838	6189.926134	0.152616	0.734303	0.086663	0.063800	0.000216	0.115019
1.215000	0.003918	0.000460	0.000337	0.000001	0.000617	202.189066	3647.284335	3668.845563	6190.307798	0.152478	0.734573	0.086244	0.063224	0.000214	0.115745
1.225000	0.003925	0.000458	0.000335	0.000001	0.000622	201.890674	3640.262894	3661.203821	6190.675657	0.152345	0.734836	0.085840	0.062663	0.000213	0.116448
1.235000	0.003932	0.000457	0.000332	0.000001	0.000626	201.601448	3633.456812	3653.819471	6191.030751	0.152216	0.735093	0.085450	0.062116	0.000212	0.117130
1.245000	0.003938	0.000456	0.000330	0.000001	0.000631	201.320823	3626.853833	3646.675483	6191.373996	0.152091	0.735342	0.085073	0.061584	0.000211	0.117791
1.255000	0.003945	0.000454	0.000327	0.000001	0.000635	201.048294	3620.442838	3639.756638	6191.706197	0.151969	0.735585	0.084707	0.061066	0.000210	0.118432
1.265000	0.003951	0.000453	0.000325	0.000001	0.000639	200.783406	3614.213697	3633.049281	6192.028071	0.151851	0.735821	0.084353	0.060562	0.000208	0.119055
1.275000	0.003957	0.000452	0.000323	0.000001	0.000643	200.525748	3608.157146	3626.541103	6192.340255	0.151737	0.736051	0.084009	0.060072	0.000207	0.119661
1.285000	0.003963	0.000450	0.000321	0.000001	0.000647	200.274946	3602.264686	3620.220969	6192.643323	0.151625	0.736275	0.083674	0.059596	0.000206	0.120249
1.295000	0.003969	0.000449	0.000319	0.000001	0.000651	200.030660	3596.528489	3614.078765	6192.937790	0.151517	0.736492	0.083348	0.059133	0.000205	0.120822
1.305000	0.003974	0.000448	0.000317	0.000001	0.000655	199.792577	3590.941329	3608.105272	6193.224121	0.151411	0.736703	0.083031	0.058682	0.000204	0.121380
1.315000	0.003980	0.000447	0.000315	0.000001	0.000659	199.560412	3585.496512	3602.292056	6193.502741	0.151308	0.736909	0.082721	0.058244	0.000203	0.121922
1.325000	0.003985	0.000446	0.000313	0.000001	0.000662	199.333899	3580.187827	3596.631379	6193.774035	0.151207	0.737108	0.082420	0.057819	0.000202	0.122451
1.335000	0.003991	0.000445	0.000311	0.000001	0.000666	199.112793	3575.009499	3591.116127	6194.038357	0.151109	0.737303	0.082125	0.057405	0.000201	0.122967
1.345000	0.003996	0.000443	0.000309	0.000001	0.000669	198.896868	3569.956155	3585.739741	6194.296033	0.151013	0.737492	0.081837	0.057002	0.000200	0.123470
1.355000	0.004001	0.000442	0.000307	0.000001	0.000672	198.685913	3565.022801	3580.496183	6194.547361	0.150920	0.737675	0.081555	0.056610	0.000199	0.123960
1.365000	0.004006	0.000441	0.000305	0.000001	0.000676	198.479729	3560.204817	3575.379906	6194.792618	0.150829	0.737854	0.081280	0.056229	0.000198	0.124438
1.375000	0.004011	0.000440	0.000304	0.000001	0.000679	198.278132	3555.497979	3570.385864	6195.032062	0.150739	0.738029	0.081011	0.055858	0.000197	0.124906
1.385000	0.004016	0.000439	0.000302	0.000001	0.000682	198.080949	3550.898525	3565.509574	6195.265928	0.150652	0.738198	0.080747	0.055496	0.000196	0.125362
1.395000	0.004021	0.000438	0.000300	0.000001	0.000685	197.888015	3546.403311	3560.747264	6195.494438	0.150566	0.738363	0.080490	0.055144	0.000196	0.125807
1.405000	0.004025	0.000437	0.000299	0.000001	0.000688	197.699175	3542.010115	3556.096184	6195.717796	0.150483	0.738524	0.080237	0.054802	0.000195	0.126242
1.415000	0.004030	0.000436	0.000297	0.000001	0.000691	197.514281	3537.718232	3551.555226	6195.936188	0.150400	0.738680	0.079990	0.054469	0.000194	0.126667
1.425000	0.004034	0.000435	0.000296	0.000001	0.000694	197.333187	3533.529597	3547.126093	6196.149780	0.150320	0.738832	0.079749	0.054145	0.000193	0.127081
1.435000	0.004038	0.000435	0.000294	0.000001	0.000697	197.155752	3529.450903	3542.815510	6196.358713	0.150241	0.738980	0.079514	0.053830	0.000192	0.127484
1.445000	0.004042	0.000434	0.000293	0.000001	0.000699	196.981823	3525.497553	3538.639368	6196.563093	0.150163	0.739122	0.079285	0.053527	0.000192	0.127874
1.455000	0.004046	0.000433	0.000291	0.000001	0.000702	196.811237	3521.701056	3534.630464	6196.762967	0.150085	0.739259	0.079065	0.053236	0.000191	0.128249
1.465000	0.004050	0.000432	0.000290	0.000001	0.000704	196.643792	3518.122811	3530.852929	6196.958290	0.150006	0.739387	0.078858	0.052963	0.000190	0.128602
1.475000	0.004054	0.000431	0.000289	0.000001	0.000707	196.479217	3514.879799	3527.429116	6197.148860	0.149926	0.739503	0.078670	0.052716	0.000189	0.128922
1.485000	0.004057	0.000431	0.000288	0.000001	0.000709	196.317159	3512.192461	3524.589651	6197.334752	0.149839	0.739599	0.078513	0.052512	0.000189	0.129187
1.495000	0.004058	0.000430	0.000287	0.000001	0.000710	196.159302	3510.473553	3522.766558	6197.541856	0.149742	0.739660	0.078413	0.052381	0.000189	0.129358
