TITLE = "title"
VARIABLES = "X","yO2v","yN2v","Yv","P","u","T","n_tilde","rho_mix","Mach","dp"
ZONE I=150, DATAPACKING=POINT
0.005000	0.235700	0.764300	0.940000	105679.380876	839.533084	302.560021	17904917854.555801	1.289698	2.480135	0.000020
0.015000	0.235700	0.764300	0.940000	109151.762697	836.326064	305.145616	17904917854.555801	1.320784	2.460245	0.000020
0.025000	0.235700	0.764300	0.940000	112745.253027	833.072877	307.756094	17904917854.555801	1.352691	2.440335	0.000020
0.035000	0.235700	0.764300	0.940000	116462.859968	829.773881	310.390668	17904917854.555801	1.385431	2.420411	0.000020
0.045000	0.235700	0.764300	0.940000	120307.461925	826.429570	313.048442	17904917854.555801	1.419012	2.400482	0.000020
0.055000	0.235700	0.764300	0.940000	124281.773763	823.040581	315.728408	17904917854.555801	1.453442	2.380554	0.000020
0.065000	0.235700	0.764300	0.940000	128388.309045	819.607717	318.429435	17904917854.555801	1.488727	2.360635	0.000020
0.075000	0.235700	0.764300	0.940000	132629.338139	816.131954	321.150264	17904917854.555801	1.524870	2.340733	0.000020
0.085000	0.235700	0.764300	0.940000	137006.841904	812.614460	323.889499	17904917854.555801	1.561873	2.320859	0.000020
0.095000	0.235700	0.764300	0.940000	141522.460757	809.056616	326.645595	17904917854.555801	1.599734	2.301021	0.000020
0.105000	0.235700	0.764300	0.940000	146177.438910	805.460024	329.416855	17904917854.555801	1.638447	2.281231	0.000020
0.115000	0.235700	0.764300	0.940000	150972.563616	801.826538	332.201415	17904917854.555801	1.678004	2.261499	0.000020
0.125000	0.235700	0.764300	0.940000	155908.099342	798.158273	334.997238	17904917854.555801	1.718394	2.241838	0.000020
0.135000	0.235700	0.764300	0.940000	160983.716804	794.457630	337.802105	17904917854.555801	1.759598	2.222261	0.000020
0.145000	0.235700	0.764300	0.940000	166198.416960	790.727318	340.613607	17904917854.555801	1.801596	2.202781	0.000020
0.155000	0.235700	0.764300	0.940000	171550.450092	786.970375	343.429130	17904917854.555801	1.844361	2.183414	0.000020
0.165000	0.235700	0.764300	0.940000	177037.230295	783.190188	346.245855	17904917854.555801	1.887860	2.164175	0.000020
0.175000	0.235700	0.764300	0.940000	182655.245833	779.390517	349.060742	17904917854.555801	1.932055	2.145081	0.000020
0.185000	0.235700	0.764300	0.940000	188399.965975	775.575519	351.870528	17904917854.555801	1.976900	2.126149	0.000020
0.195000	0.235700	0.764300	0.940000	194265.745200	771.749767	354.671713	17904917854.555801	2.022344	2.107399	0.000020
0.205000	0.235700	0.764300	0.940000	200245.725847	767.918272	357.460563	17904917854.555801	2.068326	2.088849	0.000020
0.215000	0.235700	0.764300	0.940000	206331.740589	764.086505	360.233095	17904917854.555801	2.114778	2.070522	0.000020
0.225000	0.235700	0.764300	0.940000	212514.216418	760.260416	362.985082	17904917854.555801	2.161623	2.052440	0.000020
0.235000	0.235700	0.764300	0.940000	218782.082137	756.446446	365.712042	17904917854.555801	2.208776	2.034626	0.000020
0.245000	0.235700	0.764300	0.940000	225122.681735	752.651546	368.409244	17904917854.555801	2.256142	2.017104	0.000020
0.255000	0.235700	0.764300	0.940000	231521.696364	748.883183	371.071710	17904917854.555801	2.303616	1.999901	0.000020
0.265000	0.235700	0.764300	0.940000	237963.078025	745.149350	373.694213	17904917854.555801	2.351082	1.983043	0.000020
0.275000	0.235700	0.764300	0.940000	244428.998410	741.458561	376.271291	17904917854.555801	2.398417	1.966559	0.000020
0.285000	0.235700	0.764300	0.940000	250899.816696	737.819850	378.797255	17904917854.555801	2.445485	1.950479	0.000020
0.295000	0.235700	0.764300	0.940000	257354.070340	734.242754	381.266203	17904917854.555801	2.492142	1.934831	0.000020
0.305000	0.235700	0.764300	0.940000	263768.493119	730.737293	383.672037	17904917854.555801	2.538232	1.919649	0.000020
0.315000	0.235700	0.764300	0.940000	270118.064732	727.313939	386.008488	17904917854.555801	2.583591	1.904964	0.000020
0.325000	0.235700	0.764300	0.940000	276376.096186	723.983573	388.269145	17904917854.555801	2.628048	1.890810	0.000020
0.335000	0.235700	0.764300	0.940000	282514.354923	720.757432	390.447480	17904917854.555801	2.671420	1.877219	0.000020
0.345000	0.235700	0.764300	0.940000	288503.233115	717.647046	392.536896	17904917854.555801	2.713520	1.864227	0.000020
0.355000	0.235700	0.764300	0.940000	294311.961774	714.664157	394.530761	17904917854.555801	2.754156	1.851868	0.000020
0.365000	0.235700	0.764300	0.940000	299908.872245	711.820627	396.422463	17904917854.555801	2.793131	1.840175	0.000020
0.375000	0.235700	0.764300	0.940000	305261.705234	709.128337	398.205457	17904917854.555801	2.830246	1.829184	0.000020
0.385000	0.235700	0.764300	0.940000	310337.965843	706.599069	399.873330	17904917854.555801	2.865302	1.818928	0.000020
0.395000	0.235700	0.764300	0.940000	315105.321091	704.244377	401.419858	17904917854.555801	2.898102	1.809438	0.000020
0.405000	0.235700	0.764300	0.940000	319532.034215	702.075453	402.839075	17904917854.555801	2.928456	1.800748	0.000020
0.415000	0.235700	0.764300	0.940000	323587.427756	700.102983	404.125335	17904917854.555801	2.956177	1.792885	0.000020
0.425000	0.235700	0.764300	0.940000	327242.365151	698.336995	405.273387	17904917854.555801	2.981093	1.785878	0.000020
0.435000	0.235700	0.764300	0.940000	330469.738480	696.786721	406.278438	17904917854.555801	3.003041	1.779752	0.000020
0.445000	0.235700	0.764300	0.940000	333244.948284	695.460443	407.136219	17904917854.555801	3.021876	1.774530	0.000020
0.455000	0.235700	0.764300	0.940000	335546.360223	694.365364	407.843045	17904917854.555801	3.037468	1.770231	0.000020
0.465000	0.235700	0.764300	0.940000	337355.722878	693.507486	408.395868	17904917854.555801	3.049711	1.766872	0.000020
0.475000	0.235700	0.764300	0.940000	338658.531414	692.891500	408.792327	17904917854.555801	3.058517	1.764464	0.000020
0.485000	0.235700	0.764300	0.940000	339444.323119	692.520707	409.030779	17904917854.555801	3.063825	1.763016	0.000020
0.495000	0.235700	0.764300	0.940000	339706.893047	692.396956	409.110328	17904917854.555801	3.065599	1.762533	0.000020
0.505000	0.235700	0.764300	0.940000	339444.420974	692.520611	409.030840	17904917854.555801	3.063826	1.763016	0.000020
0.515000	0.235700	0.764300	0.940000	338659.504490	692.890547	408.792939	17904917854.555801	3.058521	1.764460	0.000020
0.525000	0.235700	0.764300	0.940000	337359.097020	693.504173	408.398002	17904917854.555801	3.049725	1.766859	0.000020
0.535000	0.235700	0.764300	0.940000	335554.353626	694.357480	407.848129	17904917854.555801	3.037503	1.770201	0.000020
0.545000	0.235700	0.764300	0.940000	333260.391245	695.445124	407.146116	17904917854.555801	3.021943	1.774470	0.000020
0.555000	0.235700	0.764300	0.940000	330495.973394	696.760514	406.295406	17904917854.555801	3.003154	1.779649	0.000020
0.565000	0.235700	0.764300	0.940000	327283.131974	698.295937	405.300039	17904917854.555801	2.981269	1.785716	0.000020
0.575000	0.235700	0.764300	0.940000	323646.740633	700.042684	404.164590	17904917854.555801	2.956432	1.792645	0.000020
0.585000	0.235700	0.764300	0.940000	319614.055016	701.991191	402.894108	17904917854.555801	2.928807	1.800411	0.000020
0.595000	0.235700	0.764300	0.940000	315214.235270	704.131185	401.494051	17904917854.555801	2.898568	1.808984	0.000020
0.605000	0.235700	0.764300	0.940000	310477.865409	706.451828	399.970211	17904917854.555801	2.865899	1.818333	0.000020
0.615000	0.235700	0.764300	0.940000	305436.482762	708.941868	398.328657	17904917854.555801	2.830990	1.828426	0.000020
0.625000	0.235700	0.764300	0.940000	300122.128882	711.589767	396.575660	17904917854.555801	2.794037	1.839230	0.000020
0.635000	0.235700	0.764300	0.940000	294566.931178	714.383840	394.717637	17904917854.555801	2.755237	1.850712	0.000020
0.645000	0.235700	0.764300	0.940000	288802.722276	717.312366	392.761090	17904917854.555801	2.714786	1.862836	0.000020
0.655000	0.235700	0.764300	0.940000	282860.701959	720.363703	390.712553	17904917854.555801	2.672880	1.875569	0.000020
0.665000	0.235700	0.764300	0.940000	276771.144451	723.526378	388.578541	17904917854.555801	2.629708	1.888877	0.000020
0.675000	0.235700	0.764300	0.940000	270563.152015	726.789169	386.365509	17904917854.555801	2.585457	1.902726	0.000020
0.685000	0.235700	0.764300	0.940000	264264.454291	730.141177	384.079813	17904917854.555801	2.540304	1.917082	0.000020
0.695000	0.235700	0.764300	0.940000	257901.251552	733.571880	381.727677	17904917854.555801	2.494421	1.931915	0.000020
0.705000	0.235700	0.764300	0.940000	251498.099110	737.071182	379.315161	17904917854.555801	2.447969	1.947191	0.000020
0.715000	0.235700	0.764300	0.940000	245077.829444	740.629443	376.848145	17904917854.555801	2.401102	1.962881	0.000020
0.725000	0.235700	0.764300	0.940000	238661.508174	744.237509	374.332305	17904917854.555801	2.353963	1.978955	0.000020
0.735000	0.235700	0.764300	0.940000	232268.419807	747.886725	371.773098	17904917854.555801	2.306685	1.995385	0.000020
0.745000	0.235700	0.764300	0.940000	225916.079138	751.568944	369.175754	17904917854.555801	2.259392	2.012143	0.000020
0.755000	0.235700	0.764300	0.940000	219620.264270	755.276533	366.545263	17904917854.555801	2.212198	2.029203	0.000020
0.765000	0.235700	0.764300	0.940000	213395.067421	759.002364	363.886377	17904917854.555801	2.165206	2.046542	0.000020
0.775000	0.235700	0.764300	0.940000	207252.959960	762.739810	361.203602	17904917854.555801	2.118512	2.064134	0.000020
0.785000	0.235700	0.764300	0.940000	201204.868421	766.482735	358.501200	17904917854.555801	2.072200	2.081959	0.000020
0.795000	0.235700	0.764300	0.940000	195260.258571	770.225472	355.783190	17904917854.555801	2.026346	2.099993	0.000020
0.805000	0.235700	0.764300	0.940000	189427.224992	773.962815	353.053351	17904917854.555801	1.981020	2.118218	0.000020
0.815000	0.235700	0.764300	0.940000	183712.583940	777.689993	350.315231	17904917854.555801	1.936279	2.136614	0.000020
0.825000	0.235700	0.764300	0.940000	178121.967599	781.402653	347.572144	17904917854.555801	1.892179	2.155164	0.000020
0.835000	0.235700	0.764300	0.940000	172659.918149	785.096838	344.827187	17904917854.555801	1.848762	2.173850	0.000020
0.845000	0.235700	0.764300	0.940000	167329.980357	788.768966	342.083240	17904917854.555801	1.806069	2.192657	0.000020
0.855000	0.235524	0.763731	0.940701	376837.970759	539.592624	494.947876	17904917854.555801	2.810638	1.252353	0.000020
0.865000	0.234862	0.761581	0.943356	891003.502130	253.789457	594.435505	17904917854.555801	5.529830	0.539992	0.000020
0.875000	0.234113	0.759155	0.946370	936748.841939	234.502417	597.610456	17904917854.555801	5.779958	0.498246	0.000019
0.885000	0.233353	0.756689	0.949454	944414.155275	228.465101	597.886721	17904917854.555801	5.821672	0.485856	0.000019
0.895000	0.232589	0.754213	0.952572	952359.444430	222.413381	598.123772	17904917854.555801	5.865381	0.473422	0.000018
0.905000	0.231824	0.751731	0.955717	959855.361960	216.586939	598.278411	17904917854.555801	5.907035	0.461467	0.000018
0.915000	0.231059	0.749250	0.958882	966951.670956	210.966631	598.360021	17904917854.555801	5.946877	0.449946	0.000018
0.925000	0.230296	0.746777	0.962056	973672.750831	205.542112	598.376128	17904917854.555801	5.985009	0.438833	0.000017
0.935000	0.229539	0.744321	0.965232	980041.458073	200.303909	598.334055	17904917854.555801	6.021521	0.428104	0.000017
0.945000	0.228788	0.741887	0.968398	986078.677777	195.243497	598.240984	17904917854.555801	6.056495	0.417738	0.000016
0.955000	0.228048	0.739486	0.971542	991803.609993	190.353156	598.104062	17904917854.555801	6.089996	0.407716	0.000016
0.965000	0.227320	0.737127	0.974652	997233.983800	185.625863	597.930513	17904917854.555801	6.122083	0.398020	0.000015
0.975000	0.226608	0.734819	0.977713	1002385.990948	181.055176	597.727755	17904917854.555801	6.152800	0.388634	0.000014
0.985000	0.225916	0.732574	0.980710	1007282.049421	176.636239	597.503380	17904917854.555801	6.182229	0.379546	0.000014
0.995000	0.225247	0.730404	0.983623	1011713.321361	172.332191	597.270144	17904917854.555801	6.208977	0.370672	0.000013
1.005000	0.224612	0.728344	0.986404	1022423.538795	169.093462	596.904764	17904917854.555801	6.275773	0.364092	0.000012
1.015000	0.224021	0.726429	0.989004	1021967.543220	169.100564	596.112998	17904917854.555801	6.278719	0.364594	0.000011
1.025000	0.223481	0.724676	0.991397	1022220.974876	168.913073	595.412734	17904917854.555801	6.285281	0.364624	0.000010
1.035000	0.222993	0.723094	0.993567	1022413.571352	168.753625	594.776076	17904917854.555801	6.291034	0.364672	0.000009
1.045000	0.222561	0.721695	0.995492	1022595.432987	168.608832	594.211490	17904917854.555801	6.296213	0.364704	0.000008
1.055000	0.222193	0.720500	0.997144	1022762.343538	168.481295	593.727384	17904917854.555801	6.300729	0.364722	0.000007
1.065000	0.221895	0.719535	0.998482	1022913.637019	168.373189	593.336108	17904917854.555801	6.304484	0.364725	0.000006
1.075000	0.221682	0.718844	0.999440	1023048.511622	168.287794	593.056787	17904917854.555801	6.307329	0.364709	0.000004
1.085000	0.221574	0.718495	0.999927	1023165.693267	168.230206	592.917069	17904917854.555801	6.309053	0.364669	0.000002
1.095000	0.221561	0.718452	0.999986	1023238.852115	168.204800	592.904182	17904917854.555801	6.309616	0.364624	0.000001
1.105000	0.221559	0.718444	0.999997	1023250.449954	168.202263	592.899617	17904917854.555801	6.309699	0.364620	0.000001
1.115000	0.221559	0.718444	0.999997	1023250.215676	168.202670	592.899642	17904917854.555801	6.309688	0.364621	0.000001
1.125000	0.221559	0.718444	0.999997	1023249.954249	168.202520	592.899656	17904917854.555801	6.309688	0.364620	0.000001
1.135000	0.221559	0.718444	0.999997	1023249.984086	168.202526	592.899655	17904917854.555801	6.309688	0.364620	0.000001
1.145000	0.221559	0.718444	0.999997	1023250.011753	168.202545	592.899656	17904917854.555801	6.309688	0.364620	0.000001
1.155000	0.221559	0.718444	0.999997	1023249.997598	168.202537	592.899655	17904917854.555801	6.309688	0.364620	0.000001
1.165000	0.221559	0.718444	0.999997	1023249.999540	168.202538	592.899655	17904917854.555801	6.309688	0.364620	0.000001
1.175000	0.221559	0.718444	0.999997	1023250.000404	168.202539	592.899655	17904917854.555801	6.309688	0.364620	0.000001
1.185000	0.221559	0.718444	0.999997	1023249.999924	168.202538	592.899655	17904917854.555801	6.309688	0.364620	0.000001
1.195000	0.221559	0.718444	0.999997	1023249.999978	168.202538	592.899655	17904917854.555801	6.309688	0.364620	0.000001
1.205000	0.221559	0.718444	0.999997	1023250.000016	168.202538	592.899655	17904917854.555801	6.309688	0.364620	0.000001
1.215000	0.221559	0.718444	0.999997	1023249.999997	168.202538	592.899655	17904917854.555801	6.309688	0.364620	0.000001
1.225000	0.221559	0.718444	0.999997	1023249.999999	168.202538	592.899655	17904917854.555801	6.309688	0.364620	0.000001
1.235000	0.221559	0.718444	0.999997	1023250.000001	168.202538	592.899655	17904917854.555801	6.309688	0.364620	0.000001
1.245000	0.221559	0.718444	0.999997	1023250.000000	168.202538	592.899655	17904917854.555801	6.309688	0.364620	0.000001
1.255000	0.221559	0.718444	0.999997	1023250.000000	168.202538	592.899655	17904917854.555801	6.309688	0.364620	0.000001
1.265000	0.221559	0.718444	0.999997	1023250.000000	168.202538	592.899655	17904917854.555801	6.309688	0.364620	0.000001
1.275000	0.221559	0.718444	0.999997	1023250.000000	168.202538	592.899655	17904917854.555801	6.309688	0.364620	0.000001
1.285000	0.221559	0.718444	0.999997	1023250.000000	168.202538	592.899655	17904917854.555801	6.309688	0.364620	0.000001
1.295000	0.221559	0.718444	0.999997	1023250.000000	168.202538	592.899655	17904917854.555801	6.309688	0.364620	0.000001
1.305000	0.221559	0.718444	0.999997	1023250.000000	168.202538	592.899655	17904917854.555801	6.309688	0.364620	0.000001
1.315000	0.221559	0.718444	0.999997	1023250.000000	168.202538	592.899655	17904917854.555801	6.309688	0.364620	0.000001
1.325000	0.221559	0.718444	0.999997	1023250.000000	168.202538	592.899655	17904917854.555801	6.309688	0.364620	0.000001
1.335000	0.221559	0.718444	0.999997	1023250.000000	168.202538	592.899655	17904917854.555801	6.309688	0.364620	0.000001
1.345000	0.221559	0.718444	0.999997	1023250.000000	168.202538	592.899655	17904917854.555801	6.309688	0.364620	0.000001
1.355000	0.221559	0.718444	0.999997	1023250.000000	168.202538	592.899655	17904917854.555801	6.309688	0.364620	0.000001
1.365000	0.221559	0.718444	0.999997	1023250.000000	168.202538	592.899655	17904917854.555801	6.309688	0.364620	0.000001
1.375000	0.221559	0.718444	0.999997	1023250.000000	168.202538	592.899655	17904917854.555801	6.309688	0.364620	0.000001
1.385000	0.221559	0.718444	0.999997	1023250.000000	168.202538	592.899655	17904917854.555801	6.309688	0.364620	0.000001
1.395000	0.221559	0.718444	0.999997	1023250.000000	168.202538	592.899655	17904917854.555801	6.309688	0.364620	0.000001
1.405000	0.221559	0.718444	0.999997	1023250.000000	168.202538	592.899655	17904917854.555801	6.309688	0.364620	0.000001
1.415000	0.221559	0.718444	0.999997	1023250.000000	168.202538	592.899655	17904917854.555801	6.309688	0.364620	0.000001
1.425000	0.221559	0.718444	0.999997	1023250.000000	168.202538	592.899655	17904917854.555801	6.309688	0.364620	0.000001
1.435000	0.221559	0.718444	0.999997	1023250.000000	168.202538	592.899655	17904917854.555801	6.309688	0.364620	0.000001
1.445000	0.221559	0.718444	0.999997	1023250.000000	168.202538	592.899655	17904917854.555801	6.309688	0.364620	0.000001
1.455000	0.221559	0.718444	0.999997	1023250.000000	168.202538	592.899655	17904917854.555801	6.309688	0.364620	0.000001
1.465000	0.221559	0.718444	0.999997	1023250.000000	168.202538	592.899655	17904917854.555801	6.309688	0.364620	0.000001
1.475000	0.221559	0.718444	0.999997	1023250.000000	168.202538	592.899655	17904917854.555801	6.309688	0.364620	0.000001
1.485000	0.221559	0.718444	0.999997	1023250.000000	168.202538	592.899655	17904917854.555801	6.309688	0.364620	0.000001
1.495000	0.221559	0.718444	0.999997	1023250.000000	168.202538	592.899655	17904917854.555801	6.309688	0.364620	0.000001
