TITLE = "title"
VARIABLES = "X","yO2v","yN2v","Yv","P","u","T","n_tilde","delta_u","rho_mix","Mach","dp"
ZONE I=300, DATAPACKING=POINT
0.002500	0.235700	0.764300	0.940000	103992.972456	827.330632	301.274406	17904917854.555801	-1.670131	1.274534	2.490078	0.000020
0.007500	0.235700	0.764300	0.940000	105690.351180	825.720920	302.555354	17904917854.555801	-3.330404	1.289851	2.480147	0.000020
0.012500	0.235700	0.764300	0.940000	107417.545904	824.099228	303.842770	17904917854.555801	-4.977779	1.305374	2.470206	0.000020
0.017500	0.235700	0.764300	0.940000	109174.962410	822.465574	305.136578	17904917854.555801	-6.609664	1.321104	2.460258	0.000020
0.022500	0.235700	0.764300	0.940000	110963.001736	820.819981	306.436691	17904917854.555801	-8.223756	1.337042	2.450302	0.000020
0.027500	0.235700	0.764300	0.940000	112782.059326	819.162481	307.743020	17904917854.555801	-9.817968	1.353191	2.440339	0.000020
0.032500	0.235700	0.764300	0.940000	114632.524130	817.493114	309.055468	17904917854.555801	-11.390395	1.369550	2.430370	0.000020
0.037500	0.235700	0.764300	0.940000	116514.777652	815.811928	310.373931	17904917854.555801	-12.939283	1.386123	2.420397	0.000020
0.042500	0.235700	0.764300	0.940000	118429.192939	814.118977	311.698300	17904917854.555801	-14.463022	1.402910	2.410419	0.000020
0.047500	0.235700	0.764300	0.940000	120376.133503	812.414328	313.028458	17904917854.555801	-15.960125	1.419912	2.400437	0.000020
0.052500	0.235700	0.764300	0.940000	122355.952198	810.698055	314.364281	17904917854.555801	-17.429226	1.437131	2.390453	0.000020
0.057500	0.235700	0.764300	0.940000	124368.990014	808.970243	315.705638	17904917854.555801	-18.869071	1.454567	2.380467	0.000020
0.062500	0.235700	0.764300	0.940000	126415.574823	807.230987	317.052390	17904917854.555801	-20.278513	1.472220	2.370480	0.000020
0.067500	0.235700	0.764300	0.940000	128496.020043	805.480392	318.404389	17904917854.555801	-21.656506	1.490093	2.360494	0.000020
0.072500	0.235700	0.764300	0.940000	130610.623239	803.718576	319.761481	17904917854.555801	-23.002102	1.508184	2.350509	0.000020
0.077500	0.235700	0.764300	0.940000	132759.664648	801.945667	321.123502	17904917854.555801	-24.314448	1.526496	2.340527	0.000020
0.082500	0.235700	0.764300	0.940000	134943.405639	800.161808	322.490280	17904917854.555801	-25.592779	1.545026	2.330548	0.000020
0.087500	0.235700	0.764300	0.940000	137162.087078	798.367152	323.861633	17904917854.555801	-26.836418	1.563777	2.320574	0.000020
0.092500	0.235700	0.764300	0.940000	139415.927639	796.561868	325.237371	17904917854.555801	-28.044772	1.582747	2.310606	0.000020
0.097500	0.235700	0.764300	0.940000	141705.122015	794.746136	326.617294	17904917854.555801	-29.217327	1.601937	2.300645	0.000020
0.102500	0.235700	0.764300	0.940000	144029.839058	792.920155	328.001192	17904917854.555801	-30.353647	1.621345	2.290693	0.000020
0.107500	0.235700	0.764300	0.940000	146390.219838	791.084136	329.388844	17904917854.555801	-31.453370	1.640971	2.280750	0.000020
0.112500	0.235700	0.764300	0.940000	148786.375612	789.238308	330.780021	17904917854.555801	-32.516204	1.660814	2.270819	0.000020
0.117500	0.235700	0.764300	0.940000	151218.385715	787.382913	332.174481	17904917854.555801	-33.541922	1.680873	2.260900	0.000020
0.122500	0.235700	0.764300	0.940000	153686.295363	785.518215	333.571971	17904917854.555801	-34.530366	1.701145	2.250996	0.000020
0.127500	0.235700	0.764300	0.940000	156190.113370	783.644494	334.972229	17904917854.555801	-35.481433	1.721630	2.241107	0.000020
0.132500	0.235700	0.764300	0.940000	158729.809784	781.762046	336.374979	17904917854.555801	-36.395083	1.742325	2.231236	0.000020
0.137500	0.235700	0.764300	0.940000	161305.313439	779.871191	337.779935	17904917854.555801	-37.271327	1.763229	2.221384	0.000020
0.142500	0.235700	0.764300	0.940000	163916.509413	777.972265	339.186795	17904917854.555801	-38.110227	1.784337	2.211552	0.000020
0.147500	0.235700	0.764300	0.940000	166563.236421	776.065628	340.595251	17904917854.555801	-38.911894	1.805647	2.201743	0.000020
0.152500	0.235700	0.764300	0.940000	169245.284116	774.151658	342.004975	17904917854.555801	-39.676484	1.827157	2.191959	0.000020
0.157500	0.235700	0.764300	0.940000	171962.390313	772.230758	343.415632	17904917854.555801	-40.404193	1.848862	2.182200	0.000020
0.162500	0.235700	0.764300	0.940000	174714.238147	770.303353	344.826869	17904917854.555801	-41.095256	1.870757	2.172470	0.000020
0.167500	0.235700	0.764300	0.940000	177500.453151	768.369893	346.238323	17904917854.555801	-41.749945	1.892840	2.162771	0.000020
0.172500	0.235700	0.764300	0.940000	180320.600275	766.430849	347.649614	17904917854.555801	-42.368562	1.915104	2.153103	0.000020
0.177500	0.235700	0.764300	0.940000	183174.180842	764.486722	349.060350	17904917854.555801	-42.951438	1.937545	2.143470	0.000020
0.182500	0.235700	0.764300	0.940000	186060.629448	762.538035	350.470123	17904917854.555801	-43.498934	1.960157	2.133874	0.000020
0.187500	0.235700	0.764300	0.940000	188979.310824	760.585340	351.878513	17904917854.555801	-44.011430	1.982933	2.124318	0.000020
0.192500	0.235700	0.764300	0.940000	191929.516648	758.629217	353.285081	17904917854.555801	-44.489330	2.005868	2.114802	0.000020
0.197500	0.235700	0.764300	0.940000	194910.462335	756.670273	354.689375	17904917854.555801	-44.933056	2.028954	2.105331	0.000020
0.202500	0.235700	0.764300	0.940000	197921.283813	754.709143	356.090928	17904917854.555801	-45.343044	2.052182	2.095906	0.000020
0.207500	0.235700	0.764300	0.940000	200961.034279	752.746496	357.489257	17904917854.555801	-45.719745	2.075547	2.086530	0.000020
0.212500	0.235700	0.764300	0.940000	204028.680975	750.783026	358.883864	17904917854.555801	-46.063620	2.099037	2.077206	0.000020
0.217500	0.235700	0.764300	0.940000	207123.101980	748.819463	360.274232	17904917854.555801	-46.375139	2.122645	2.067936	0.000020
0.222500	0.235700	0.764300	0.940000	210243.083036	746.856567	361.659831	17904917854.555801	-46.654777	2.146361	2.058724	0.000020
0.227500	0.235700	0.764300	0.940000	213387.314431	744.895129	363.040115	17904917854.555801	-46.903014	2.170174	2.049572	0.000020
0.232500	0.235700	0.764300	0.940000	216554.387957	742.935975	364.414519	17904917854.555801	-47.120334	2.194073	2.040483	0.000020
0.237500	0.235700	0.764300	0.940000	219742.793956	740.979965	365.782464	17904917854.555801	-47.307221	2.218047	2.031461	0.000020
0.242500	0.235700	0.764300	0.940000	222950.918484	739.027991	367.143354	17904917854.555805	-47.464154	2.242084	2.022509	0.000020
0.247500	0.235700	0.764300	0.940000	226177.040619	737.080981	368.496576	17904917854.555805	-47.591616	2.266170	2.013629	0.000020
0.252500	0.235700	0.764300	0.940000	229419.329921	735.139898	369.841502	17904917854.555801	-47.690079	2.290293	2.004825	0.000020
0.257500	0.235700	0.764300	0.940000	232675.844096	733.205740	371.177486	17904917854.555801	-47.760014	2.314438	1.996102	0.000020
0.262500	0.235700	0.764300	0.940000	235944.526874	731.279540	372.503868	17904917854.555801	-47.801882	2.338590	1.987461	0.000020
0.267500	0.235700	0.764300	0.940000	239223.206135	729.362367	373.819970	17904917854.555801	-47.816139	2.362735	1.978907	0.000020
0.272500	0.235700	0.764300	0.940000	242509.592318	727.455325	375.125100	17904917854.555801	-47.803229	2.386856	1.970443	0.000020
0.277500	0.235700	0.764300	0.940000	245801.277152	725.559555	376.418550	17904917854.555801	-47.763587	2.410937	1.962074	0.000020
0.282500	0.235700	0.764300	0.940000	249095.732722	723.676232	377.699596	17904917854.555801	-47.697638	2.434959	1.953803	0.000020
0.287500	0.235700	0.764300	0.940000	252390.310934	721.806567	378.967501	17904917854.555801	-47.605795	2.458906	1.945633	0.000020
0.292500	0.235700	0.764300	0.940000	255682.243392	719.951805	380.221512	17904917854.555801	-47.488457	2.482757	1.937570	0.000020
0.297500	0.235700	0.764300	0.940000	258968.641739	718.113225	381.460863	17904917854.555801	-47.346014	2.506495	1.929616	0.000020
0.302500	0.235700	0.764300	0.940000	262246.498493	716.292139	382.684777	17904917854.555801	-47.178839	2.530098	1.921777	0.000020
0.307500	0.235700	0.764300	0.940000	265512.688420	714.489894	383.892460	17904917854.555801	-46.987295	2.553546	1.914056	0.000020
0.312500	0.235700	0.764300	0.940000	268763.970477	712.707865	385.083110	17904917854.555801	-46.771731	2.576819	1.906458	0.000020
0.317500	0.235700	0.764300	0.940000	271996.990371	710.947458	386.255913	17904917854.555801	-46.532482	2.599893	1.898987	0.000020
0.322500	0.235700	0.764300	0.940000	275208.283757	709.210110	387.410046	17904917854.555801	-46.269868	2.622747	1.891647	0.000020
0.327500	0.235700	0.764300	0.940000	278394.280129	707.497281	388.544675	17904917854.555801	-45.984200	2.645358	1.884443	0.000020
0.332500	0.235700	0.764300	0.940000	281551.307416	705.810459	389.658959	17904917854.555801	-45.675773	2.667701	1.877380	0.000020
0.337500	0.235700	0.764300	0.940000	284675.597332	704.151155	390.752052	17904917854.555801	-45.344869	2.689754	1.870462	0.000020
0.342500	0.235700	0.764300	0.940000	287763.291491	702.520899	391.823101	17904917854.555801	-44.991759	2.711492	1.863693	0.000020
0.347500	0.235700	0.764300	0.940000	290810.448324	700.921241	392.871248	17904917854.555801	-44.616703	2.732889	1.857078	0.000020
0.352500	0.235700	0.764300	0.940000	293813.050805	699.353744	393.895635	17904917854.555801	-44.219949	2.753921	1.850622	0.000020
0.357500	0.235700	0.764300	0.940000	296767.015008	697.819986	394.895401	17904917854.555801	-43.801734	2.774562	1.844330	0.000020
0.362500	0.235700	0.764300	0.940000	299668.199492	696.321552	395.869687	17904917854.555801	-43.362285	2.794786	1.838206	0.000020
0.367500	0.235700	0.764300	0.940000	302512.415526	694.860034	396.817634	17904917854.555801	-42.901822	2.814568	1.832254	0.000020
0.372500	0.235700	0.764300	0.940000	305295.438130	693.437025	397.738392	17904917854.555801	-42.420555	2.833882	1.826480	0.000020
0.377500	0.235700	0.764300	0.940000	308013.017930	692.054116	398.631112	17904917854.555801	-41.918686	2.852701	1.820888	0.000020
0.382500	0.235700	0.764300	0.940000	310660.893798	690.712892	399.494955	17904917854.555801	-41.396414	2.870999	1.815482	0.000020
0.387500	0.235700	0.764300	0.940000	313234.806227	689.414926	400.329095	17904917854.555801	-40.853929	2.888750	1.810268	0.000020
0.392500	0.235700	0.764300	0.940000	315730.511420	688.161778	401.132715	17904917854.555801	-40.291418	2.905929	1.805249	0.000020
0.397500	0.235700	0.764300	0.940000	318143.796014	686.954984	401.905014	17904917854.555801	-39.709064	2.922510	1.800430	0.000020
0.402500	0.235700	0.764300	0.940000	320470.492388	685.796059	402.645207	17904917854.555801	-39.107046	2.938468	1.795816	0.000020
0.407500	0.235700	0.764300	0.940000	322706.494462	684.686485	403.352531	17904917854.555801	-38.485545	2.953779	1.791410	0.000020
0.412500	0.235700	0.764300	0.940000	324847.773911	683.627710	404.026241	17904917854.555801	-37.844738	2.968417	1.787216	0.000020
0.417500	0.235700	0.764300	0.940000	326890.396687	682.621141	404.665618	17904917854.555801	-37.184802	2.982359	1.783239	0.000020
0.422500	0.235700	0.764300	0.940000	328830.539739	681.668139	405.269971	17904917854.555801	-36.505915	2.995583	1.779482	0.000020
0.427500	0.235700	0.764300	0.940000	330664.507815	680.770012	405.838633	17904917854.555801	-35.808258	3.008067	1.775950	0.000020
0.432500	0.235700	0.764300	0.940000	332388.750217	679.928015	406.370973	17904917854.555801	-35.092013	3.019788	1.772645	0.000020
0.437500	0.235700	0.764300	0.940000	333999.877373	679.143339	406.866391	17904917854.555801	-34.357363	3.030728	1.769571	0.000020
0.442500	0.235700	0.764300	0.940000	335494.677093	678.417109	407.324322	17904917854.555801	-33.604497	3.040867	1.766730	0.000020
0.447500	0.235700	0.764300	0.940000	336870.130354	677.750376	407.744241	17904917854.555801	-32.833605	3.050188	1.764127	0.000020
0.452500	0.235700	0.764300	0.940000	338123.426486	677.144118	408.125659	17904917854.555801	-32.044881	3.058672	1.761764	0.000020
0.457500	0.235700	0.764300	0.940000	339251.977590	676.599231	408.468133	17904917854.555801	-31.238522	3.066306	1.759642	0.000020
0.462500	0.235700	0.764300	0.940000	340253.432077	676.116523	408.771261	17904917854.555801	-30.414730	3.073076	1.757765	0.000020
0.467500	0.235700	0.764300	0.940000	341125.687160	675.696717	409.034686	17904917854.555801	-29.573706	3.078968	1.756134	0.000020
0.472500	0.235700	0.764300	0.940000	341866.900187	675.340441	409.258098	17904917854.555801	-28.715657	3.083973	1.754751	0.000020
0.477500	0.235700	0.764300	0.940000	342475.498696	675.048230	409.441237	17904917854.555801	-27.840789	3.088080	1.753618	0.000020
0.482500	0.235700	0.764300	0.940000	342950.189065	674.820517	409.583889	17904917854.555801	-26.949307	3.091283	1.752735	0.000020
0.487500	0.235700	0.764300	0.940000	343289.963686	674.657639	409.685892	17904917854.555801	-26.041419	3.093574	1.752104	0.000020
0.492500	0.235700	0.764300	0.940000	343494.106557	674.559827	409.747132	17904917854.555801	-25.117326	3.094951	1.751725	0.000020
0.497500	0.235700	0.764300	0.940000	343562.197259	674.527212	409.767550	17904917854.555801	-24.177227	3.095410	1.751599	0.000020
0.502500	0.235700	0.764300	0.940000	343494.113240	674.559821	409.747136	17904917854.555801	-23.221313	3.094951	1.751725	0.000020
0.507500	0.235700	0.764300	0.940000	343290.030410	674.657574	409.685932	17904917854.555801	-22.249768	3.093575	1.752104	0.000020
0.512500	0.235700	0.764300	0.940000	342950.422024	674.820292	409.584030	17904917854.555801	-21.262762	3.091284	1.752734	0.000020
0.517500	0.235700	0.764300	0.940000	342476.055869	675.047690	409.441576	17904917854.555801	-20.260452	3.088083	1.753616	0.000020
0.522500	0.235700	0.764300	0.940000	341867.989797	675.339383	409.258762	17904917854.555801	-19.242974	3.083978	1.754747	0.000020
0.527500	0.235700	0.764300	0.940000	341127.565643	675.694890	409.035832	17904917854.555801	-18.210444	3.078977	1.756127	0.000020
0.532500	0.235700	0.764300	0.940000	340256.401611	676.113628	408.773078	17904917854.555801	-17.162950	3.073089	1.757754	0.000020
0.537500	0.235700	0.764300	0.940000	339256.383205	676.594925	408.470838	17904917854.555801	-16.100548	3.066326	1.759625	0.000020
0.542500	0.235700	0.764300	0.940000	338129.652810	677.138017	408.129496	17904917854.555801	-15.023257	3.058700	1.761740	0.000020
0.547500	0.235700	0.764300	0.940000	336878.598031	677.742052	407.749480	17904917854.555801	-13.931050	3.050225	1.764095	0.000020
0.552500	0.235700	0.764300	0.940000	335505.838926	678.406098	407.331261	17904917854.555801	-12.823846	3.040917	1.766687	0.000020
0.557500	0.235700	0.764300	0.940000	334014.214252	679.129143	406.875348	17904917854.555801	-11.701504	3.030792	1.769515	0.000020
0.562500	0.235700	0.764300	0.940000	332406.766872	679.910102	406.382291	17904917854.555801	-10.563806	3.019868	1.772575	0.000020
0.567500	0.235700	0.764300	0.940000	330686.728460	680.747821	405.852673	17904917854.555801	-9.410447	3.008165	1.775863	0.000020
0.572500	0.235700	0.764300	0.940000	328857.503651	681.641084	405.287113	17904917854.555801	-8.241010	2.995702	1.779376	0.000020
0.577500	0.235700	0.764300	0.940000	326922.653781	682.588614	404.686262	17904917854.555801	-7.054950	2.982501	1.783111	0.000020
0.582500	0.235700	0.764300	0.940000	324885.880354	683.589082	404.050798	17904917854.555801	-5.851548	2.968584	1.787063	0.000020
0.587500	0.235700	0.764300	0.940000	322751.008369	684.641110	403.381428	17904917854.555801	-4.629868	2.953974	1.791230	0.000020
0.592500	0.235700	0.764300	0.940000	320521.969657	685.743278	402.678884	17904917854.555801	-3.388666	2.938695	1.795606	0.000020
0.597500	0.235700	0.764300	0.940000	318202.786318	686.894129	401.943917	17904917854.555801	-2.126242	2.922769	1.800188	0.000020
0.602500	0.235700	0.764300	0.940000	315797.554410	688.092173	401.177302	17904917854.555801	-0.840067	2.906223	1.804971	0.000020
0.607500	0.235700	0.764300	0.940000	313310.427959	689.335892	400.379828	17904917854.555801	0.473612	2.889081	1.809951	0.000020
0.612500	0.235700	0.764300	0.940000	310745.603418	690.623747	399.552303	17904917854.555801	1.808559	2.871369	1.815124	0.000020
0.617500	0.235700	0.764300	0.940000	308107.304631	691.954181	398.695544	17904917854.555801	3.157719	2.853113	1.820485	0.000020
0.622500	0.235700	0.764300	0.940000	305399.768397	693.325625	397.810381	17904917854.555801	4.515183	2.834337	1.826029	0.000020
0.627500	0.235700	0.764300	0.940000	302627.230685	694.736500	396.897653	17904917854.555801	5.875736	2.815069	1.831752	0.000020
0.632500	0.235700	0.764300	0.940000	299793.913551	696.185226	395.958206	17904917854.555801	7.234709	2.795334	1.837650	0.000020
0.637500	0.235700	0.764300	0.940000	296904.012813	697.670219	394.992889	17904917854.555801	8.587910	2.775157	1.843717	0.000020
0.642500	0.235700	0.764300	0.940000	293961.686497	699.189902	394.002555	17904917854.555801	9.931583	2.754566	1.849949	0.000020
0.647500	0.235700	0.764300	0.940000	290971.044085	700.742704	392.988059	17904917854.555801	11.262379	2.733585	1.856342	0.000020
0.652500	0.235700	0.764300	0.940000	287936.136588	702.327066	391.950254	17904917854.555801	12.577329	2.712240	1.862890	0.000020
0.657500	0.235700	0.764300	0.940000	284860.947431	703.941440	390.889993	17904917854.555801	13.873827	2.690555	1.869590	0.000020
0.662500	0.235700	0.764300	0.940000	281749.384163	705.584299	389.808122	17904917854.555801	15.149604	2.668556	1.876436	0.000020
0.667500	0.235700	0.764300	0.940000	278605.270975	707.254131	388.705486	17904917854.555801	16.402714	2.646267	1.883424	0.000020
0.672500	0.235700	0.764300	0.940000	275432.342022	708.949449	387.582921	17904917854.555801	17.631506	2.623711	1.890549	0.000020
0.677500	0.235700	0.764300	0.940000	272234.235514	710.668789	386.441257	17904917854.555801	18.834606	2.600913	1.897808	0.000020
0.682500	0.235700	0.764300	0.940000	269014.488569	712.410711	385.281315	17904917854.555801	20.010896	2.577894	1.905195	0.000020
0.687500	0.235700	0.764300	0.940000	265776.532791	714.173805	384.103905	17904917854.555801	21.159495	2.554677	1.912706	0.000020
0.692500	0.235700	0.764300	0.940000	262523.690539	715.956689	382.909830	17904917854.555801	22.279733	2.531283	1.920338	0.000020
0.697500	0.235700	0.764300	0.940000	259259.171873	717.758012	381.699879	17904917854.555801	23.371137	2.507735	1.928085	0.000020
0.702500	0.235700	0.764300	0.940000	255986.072112	719.576455	380.474829	17904917854.555801	24.433408	2.484052	1.935943	0.000020
0.707500	0.235700	0.764300	0.940000	252707.370003	721.410729	379.235445	17904917854.555801	25.466404	2.460255	1.943910	0.000020
0.712500	0.235700	0.764300	0.940000	249425.926431	723.259582	377.982478	17904917854.555801	26.470122	2.436362	1.951979	0.000020
0.717500	0.235700	0.764300	0.940000	246144.483659	725.121793	376.716666	17904917854.555801	27.444681	2.412392	1.960148	0.000020
0.722500	0.235700	0.764300	0.940000	242865.665042	726.996176	375.438732	17904917854.555801	28.390308	2.388364	1.968413	0.000020
0.727500	0.235700	0.764300	0.940000	239591.975195	728.881583	374.149384	17904917854.555801	29.307322	2.364294	1.976770	0.000020
0.732500	0.235700	0.764300	0.940000	236325.800559	730.776896	372.849315	17904917854.555801	30.196120	2.340199	1.985215	0.000020
0.737500	0.235700	0.764300	0.940000	233069.410350	732.681036	371.539203	17904917854.555801	31.057170	2.316095	1.993744	0.000020
0.742500	0.235700	0.764300	0.940000	229824.957834	734.592957	370.219710	17904917854.555801	31.890992	2.291998	2.002355	0.000020
0.747500	0.235700	0.764300	0.940000	226594.481921	736.511650	368.891482	17904917854.555801	32.698153	2.267922	2.011043	0.000020
0.752500	0.235700	0.764300	0.940000	223379.909021	738.436140	367.555150	17904917854.555801	33.479259	2.243881	2.019805	0.000020
0.757500	0.235700	0.764300	0.940000	220183.055143	740.365486	366.211326	17904917854.555801	34.234943	2.219888	2.028639	0.000020
0.762500	0.235700	0.764300	0.940000	217005.628213	742.298782	364.860609	17904917854.555801	34.965860	2.195956	2.037540	0.000020
0.767500	0.235700	0.764300	0.940000	213849.230573	744.235156	363.503582	17904917854.555801	35.672680	2.172098	2.046506	0.000020
0.772500	0.235700	0.764300	0.940000	210715.361633	746.173769	362.140809	17904917854.555801	36.356084	2.148325	2.055533	0.000020
0.777500	0.235700	0.764300	0.940000	207605.420670	748.113816	360.772839	17904917854.555801	37.016757	2.124647	2.064619	0.000020
0.782500	0.235700	0.764300	0.940000	204520.709727	750.054523	359.400207	17904917854.555801	37.655384	2.101076	2.073761	0.000020
0.787500	0.235700	0.764300	0.940000	201462.436612	751.995148	358.023431	17904917854.555801	38.272647	2.077620	2.082956	0.000020
0.792500	0.235700	0.764300	0.940000	198431.717956	753.934981	356.643010	17904917854.555801	38.869224	2.054290	2.092202	0.000020
0.797500	0.235700	0.764300	0.940000	195429.582338	755.873343	355.259433	17904917854.555801	39.445782	2.031093	2.101495	0.000020
0.802500	0.235700	0.764300	0.940000	192456.973428	757.809582	353.873170	17904917854.555801	40.002977	2.008038	2.110834	0.000020
0.807500	0.235700	0.764300	0.940000	189514.753170	759.743078	352.484676	17904917854.555801	40.541454	1.985132	2.120215	0.000020
0.812500	0.235700	0.764300	0.940000	186603.704952	761.673238	351.094391	17904917854.555801	41.061843	1.962383	2.129636	0.000020
0.817500	0.235700	0.764300	0.940000	183724.536786	763.599497	349.702741	17904917854.555801	41.564757	1.939796	2.139096	0.000020
0.822500	0.235700	0.764300	0.940000	180877.884454	765.521316	348.310137	17904917854.555801	42.050796	1.917380	2.148591	0.000020
0.827500	0.235700	0.764300	0.940000	178064.314645	767.438185	346.916975	17904917854.555801	42.520541	1.895138	2.158120	0.000020
0.832500	0.235700	0.764300	0.940000	175284.328036	769.349615	345.523639	17904917854.555801	42.974555	1.873077	2.167680	0.000020
0.837500	0.235681	0.764237	0.940077	190670.821757	744.289166	363.440134	17904917854.555801	16.766655	1.937019	2.046850	0.000020
0.842500	0.233713	0.757856	0.947993	692240.917774	334.960687	562.063613	17904917854.555801	-335.975741	4.540604	0.748491	0.000019
0.847500	0.231129	0.749477	0.958590	922934.380649	241.203471	582.479859	17904917854.555805	-318.042075	5.831221	0.529428	0.000018
0.852500	0.229038	0.742698	0.967341	926568.069220	237.769622	580.523291	17904917854.555805	-227.344798	5.865703	0.522252	0.000016
0.857500	0.227419	0.737449	0.974226	932528.246808	233.711082	579.253479	17904917854.555801	-160.644524	5.909879	0.513506	0.000015
0.862500	0.226160	0.733365	0.979651	937847.412777	229.990785	578.347736	17904917854.555801	-112.429855	5.947755	0.505425	0.000014
0.867500	0.225174	0.730166	0.983943	942746.928370	226.508133	577.729145	17904917854.555801	-78.412796	5.981143	0.497806	0.000013
0.872500	0.224394	0.727638	0.987363	947303.543755	223.216966	577.329694	17904917854.555801	-54.770823	6.010942	0.490563	0.000012
0.877500	0.223772	0.725620	0.990108	951580.901157	220.080683	577.097297	17904917854.555801	-38.449879	6.037882	0.483628	0.000011
0.882500	0.223271	0.723996	0.992328	955627.274731	217.071820	576.992698	17904917854.555801	-27.180563	6.062519	0.476950	0.000010
0.887500	0.222865	0.722680	0.994136	959478.977334	214.169914	576.986748	17904917854.555801	-19.355535	6.085273	0.470490	0.000009
0.892500	0.222535	0.721609	0.995611	963163.248019	211.359756	577.058045	17904917854.555801	-13.866949	6.106457	0.464221	0.000008
0.897500	0.222266	0.720738	0.996814	966700.604516	208.630014	577.191080	17904917854.555801	-9.960102	6.126303	0.458121	0.000008
0.902500	0.222049	0.720034	0.997788	970106.631833	205.972210	577.374822	17904917854.555801	-7.121525	6.144984	0.452174	0.000007
0.907500	0.221877	0.719476	0.998563	973393.294822	203.379964	577.601660	17904917854.555801	-5.000701	6.162626	0.446366	0.000006
0.912500	0.221744	0.719046	0.999159	976569.889944	200.848449	577.866606	17904917854.555801	-3.358968	6.179319	0.440689	0.000005
0.917500	0.221649	0.718736	0.999590	979643.739943	198.373988	578.166682	17904917854.555801	-2.040668	6.195130	0.435135	0.000004
0.922500	0.221588	0.718540	0.999863	982620.699048	195.953762	578.500443	17904917854.555801	-0.970983	6.210103	0.429699	0.000003
0.927500	0.221562	0.718453	0.999984	985505.247633	193.585546	578.866625	17904917854.555801	-0.217998	6.224274	0.424375	0.000001
0.932500	0.221558	0.718442	1.000000	988296.365802	191.266632	579.251829	17904917854.555801	-0.014594	6.237735	0.419160	0.000000
0.937500	0.221558	0.718442	1.000000	990996.676249	188.990803	579.630004	17904917854.555801	-0.010731	6.250698	0.414046	0.000000
0.942500	0.221558	0.718442	1.000000	993627.529505	186.750561	579.997802	17904917854.555801	-0.010486	6.263317	0.409016	0.000000
0.947500	0.221558	0.718442	1.000000	996193.348938	184.544445	580.355668	17904917854.555801	-0.010334	6.275619	0.404068	0.000000
0.952500	0.221558	0.718442	1.000000	998695.721273	182.371846	580.703897	17904917854.555801	-0.010184	6.287610	0.399199	0.000000
0.957500	0.221558	0.718442	1.000000	1001136.332100	180.232132	581.042784	17904917854.555801	-0.010036	6.299300	0.394408	0.000000
0.962500	0.221558	0.718442	1.000000	1003516.808851	178.124693	581.372611	17904917854.555801	-0.009891	6.310696	0.389692	0.000000
0.967500	0.221558	0.718442	1.000000	1005838.731934	176.048933	581.693651	17904917854.555801	-0.009750	6.321806	0.385052	0.000000
0.972500	0.221558	0.718442	1.000000	1008103.636145	174.004275	582.006167	17904917854.555801	-0.009610	6.332639	0.380484	0.000000
0.977500	0.221558	0.718442	1.000000	1010313.012338	171.990155	582.310413	17904917854.555801	-0.009474	6.343202	0.375988	0.000000
0.982500	0.221558	0.718442	1.000000	1012468.313320	170.006026	582.606634	17904917854.555801	-0.009340	6.353502	0.371562	0.000000
0.987500	0.221558	0.718442	1.000000	1014570.823893	168.051335	582.895070	17904917854.555801	-0.009209	6.363545	0.367205	0.000000
0.992500	0.221558	0.718442	1.000000	1016625.670883	166.126090	583.175872	17904917854.555801	-0.009078	6.373363	0.362916	0.000000
0.997500	0.221558	0.718442	1.000000	1018521.865910	164.213922	583.451537	17904917854.555801	-0.008988	6.382234	0.358659	0.000000
1.002500	0.221558	0.718442	1.000000	1023564.070467	162.782055	583.655853	17904917854.555801	-0.007779	6.411584	0.355474	0.000000
1.007500	0.221558	0.718442	1.000000	1023221.071606	162.879183	583.642051	17904917854.555801	0.001919	6.409587	0.355690	0.000000
1.012500	0.221558	0.718442	1.000000	1023244.606332	162.872517	583.642998	17904917854.555801	-0.000426	6.409724	0.355675	0.000000
1.017500	0.221558	0.718442	1.000000	1023242.992007	162.872975	583.642933	17904917854.555801	0.000019	6.409715	0.355676	0.000000
1.022500	0.221558	0.718442	1.000000	1023243.102744	162.872943	583.642938	17904917854.555801	-0.000010	6.409715	0.355676	0.000000
1.027500	0.221558	0.718442	1.000000	1023243.095148	162.872945	583.642937	17904917854.555801	-0.000007	6.409715	0.355676	0.000000
1.032500	0.221558	0.718442	1.000000	1023243.095669	162.872945	583.642937	17904917854.555801	-0.000006	6.409715	0.355676	0.000000
1.037500	0.221558	0.718442	1.000000	1023243.095634	162.872945	583.642937	17904917854.555801	-0.000005	6.409715	0.355676	0.000000
1.042500	0.221558	0.718442	1.000000	1023243.095636	162.872945	583.642937	17904917854.555801	-0.000005	6.409715	0.355676	0.000000
1.047500	0.221558	0.718442	1.000000	1023243.095636	162.872945	583.642937	17904917854.555801	-0.000004	6.409715	0.355676	0.000000
1.052500	0.221558	0.718442	1.000000	1023243.095636	162.872945	583.642937	17904917854.555801	-0.000004	6.409715	0.355676	0.000000
1.057500	0.221558	0.718442	1.000000	1023243.095636	162.872945	583.642937	17904917854.555801	-0.000004	6.409715	0.355676	0.000000
1.062500	0.221558	0.718442	1.000000	1023243.095636	162.872945	583.642937	17904917854.555801	-0.000003	6.409715	0.355676	0.000000
1.067500	0.221558	0.718442	1.000000	1023243.095636	162.872945	583.642937	17904917854.555801	-0.000003	6.409715	0.355676	0.000000
1.072500	0.221558	0.718442	1.000000	1023243.095641	162.872945	583.642937	17904917854.555801	-0.000003	6.409715	0.355676	0.000000
1.077500	0.221558	0.718442	1.000000	1023243.095496	162.872945	583.642937	17904917854.555801	-0.000003	6.409715	0.355676	0.000000
1.082500	0.221558	0.718442	1.000000	1023243.099748	162.872946	583.642937	17904917854.555801	-0.000002	6.409715	0.355676	0.000000
1.087500	0.221558	0.718441	1.000001	1023242.975284	162.872928	583.642604	17904917854.555801	-0.000007	6.409717	0.355676	0.000000
1.092500	0.221558	0.718440	1.000002	1023243.067478	162.872849	583.642279	17904917854.555801	-0.000017	6.409720	0.355676	0.000000
1.097500	0.221557	0.718440	1.000003	1023243.144812	162.872775	583.641953	17904917854.555801	-0.000017	6.409723	0.355676	0.000000
1.102500	0.221557	0.718439	1.000004	1023243.223166	162.872700	583.641628	17904917854.555801	-0.000017	6.409726	0.355676	0.000000
1.107500	0.221557	0.718438	1.000005	1023243.301451	162.872625	583.641302	17904917854.555801	-0.000017	6.409729	0.355675	0.000000
1.112500	0.221557	0.718437	1.000007	1023243.379739	162.872550	583.640977	17904917854.555801	-0.000017	6.409732	0.355675	0.000000
1.117500	0.221556	0.718436	1.000008	1023243.458028	162.872475	583.640651	17904917854.555801	-0.000017	6.409735	0.355675	0.000000
1.122500	0.221556	0.718436	1.000009	1023243.536317	162.872400	583.640326	17904917854.555801	-0.000017	6.409738	0.355675	0.000000
1.127500	0.221556	0.718435	1.000010	1023243.614605	162.872325	583.640001	17904917854.555801	-0.000017	6.409741	0.355675	0.000000
1.132500	0.221556	0.718434	1.000011	1023243.692894	162.872250	583.639675	17904917854.555801	-0.000017	6.409744	0.355675	0.000000
1.137500	0.221555	0.718433	1.000012	1023243.771182	162.872175	583.639350	17904917854.555801	-0.000017	6.409747	0.355675	0.000000
1.142500	0.221555	0.718433	1.000013	1023243.849471	162.872100	583.639024	17904917854.555801	-0.000017	6.409750	0.355675	0.000000
1.147500	0.221555	0.718432	1.000014	1023243.927759	162.872025	583.638699	17904917854.555801	-0.000017	6.409753	0.355675	0.000000
1.152500	0.221555	0.718431	1.000015	1023244.006048	162.871950	583.638373	17904917854.555801	-0.000017	6.409756	0.355675	0.000000
1.157500	0.221554	0.718430	1.000016	1023244.084336	162.871875	583.638048	17904917854.555801	-0.000017	6.409758	0.355674	0.000000