TITLE = "title"
VARIABLES = "X","yO2v","yN2v","Yv","P","u","T","n_tilde","rho_mix","Mach"
ZONE I=150, DATAPACKING=POINT
0.005000	0.235700	0.764300	1.000000	1217586.991662	68.714545	594.686675	0.000000	7.107074	0.159387
0.015000	0.235700	0.764300	1.000000	1207726.203209	73.474397	594.366239	0.000000	7.053317	0.170471
0.025000	0.235700	0.764300	1.000000	1206833.995634	76.387126	594.159560	0.000000	7.050558	0.177259
0.035000	0.235700	0.764300	1.000000	1205020.046560	79.602884	593.922037	0.000000	7.042776	0.184756
0.045000	0.235700	0.764300	1.000000	1203119.148598	82.941160	593.665090	0.000000	7.034710	0.192544
0.055000	0.235700	0.764300	1.000000	1201046.111996	86.422864	593.385843	0.000000	7.025894	0.200671
0.065000	0.235700	0.764300	1.000000	1198793.478509	90.051655	593.082562	0.000000	7.016302	0.209148
0.075000	0.235700	0.764300	1.000000	1196346.148755	93.832711	592.753264	0.000000	7.005868	0.217988
0.085000	0.235700	0.764300	1.000000	1193688.642055	97.771101	592.395838	0.000000	6.994524	0.227202
0.095000	0.235700	0.764300	1.000000	1190804.452749	101.871904	592.008027	0.000000	6.982194	0.236806
0.105000	0.235700	0.764300	1.000000	1187676.088131	106.140179	591.587421	0.000000	6.968802	0.246811
0.115000	0.235700	0.764300	1.000000	1184285.057591	110.580938	591.131453	0.000000	6.954265	0.257232
0.125000	0.235700	0.764300	1.000000	1180611.877168	115.199125	590.637397	0.000000	6.938495	0.268082
0.135000	0.235700	0.764300	1.000000	1176636.085942	119.999586	590.102359	0.000000	6.921399	0.279374
0.145000	0.235700	0.764300	1.000000	1172336.276762	124.987043	589.523277	0.000000	6.902880	0.291121
0.155000	0.235700	0.764300	1.000000	1167690.143580	130.166060	588.896920	0.000000	6.882836	0.303338
0.165000	0.235700	0.764300	1.000000	1162674.547561	135.541010	588.219885	0.000000	6.861160	0.316037
0.175000	0.235700	0.764300	1.000000	1157265.604259	141.116041	587.488598	0.000000	6.837741	0.329231
0.185000	0.235700	0.764300	1.000000	1151438.794162	146.895036	586.699320	0.000000	6.812466	0.342933
0.195000	0.235700	0.764300	1.000000	1145169.099201	152.881573	585.848148	0.000000	6.785215	0.357156
0.205000	0.235700	0.764300	1.000000	1138431.167472	159.078887	584.931025	0.000000	6.755869	0.371912
0.215000	0.235700	0.764300	1.000000	1131199.508047	165.489820	583.943746	0.000000	6.724303	0.387211
0.225000	0.235700	0.764300	1.000000	1123448.718475	172.116779	582.881975	0.000000	6.690394	0.403066
0.235000	0.235700	0.764300	1.000000	1115153.746363	178.961681	581.741259	0.000000	6.654018	0.419487
0.245000	0.235700	0.764300	1.000000	1106290.186833	186.025909	580.517047	0.000000	6.615050	0.436483
0.255000	0.235700	0.764300	1.000000	1096834.617309	193.310249	579.204715	0.000000	6.573371	0.454064
0.265000	0.235700	0.764300	1.000000	1086764.970533	200.814833	577.799596	0.000000	6.528862	0.472237
0.275000	0.235700	0.764300	1.000000	1076060.947200	208.539076	576.297011	0.000000	6.481411	0.491010
0.285000	0.235700	0.764300	1.000000	1064704.469483	216.481601	574.692313	0.000000	6.430915	0.510388
0.295000	0.235700	0.764300	1.000000	1052680.177227	224.640156	572.980934	0.000000	6.377278	0.530375
0.305000	0.235700	0.764300	1.000000	1039975.969549	233.011525	571.158446	0.000000	6.320418	0.550974
0.315000	0.235700	0.764300	1.000000	1026583.598361	241.591408	569.220624	0.000000	6.260266	0.572187
0.325000	0.235700	0.764300	1.000000	1012499.322487	250.374285	567.163539	0.000000	6.196772	0.594010
0.335000	0.235700	0.764300	1.000000	997724.638800	259.353237	564.983654	0.000000	6.129907	0.616441
0.345000	0.235700	0.764300	1.000000	982267.119480	268.519712	562.677964	0.000000	6.059667	0.639471
0.355000	0.235700	0.764300	1.000000	966141.401348	277.863208	560.244160	0.000000	5.986079	0.663087
0.365000	0.235700	0.764300	1.000000	949370.407064	287.370825	557.680859	0.000000	5.909205	0.687272
0.375000	0.235700	0.764300	1.000000	931986.931405	297.026630	554.987915	0.000000	5.829152	0.712001
0.385000	0.235700	0.764300	1.000000	914035.820989	306.810696	552.166863	0.000000	5.746084	0.737237
0.395000	0.235700	0.764300	1.000000	895577.144318	316.697648	549.221576	0.000000	5.660235	0.762930
0.405000	0.235700	0.764300	1.000000	876691.068239	326.654338	546.159283	0.000000	5.571939	0.789008
0.415000	0.235700	0.764300	1.000000	857485.765242	336.636029	542.992201	0.000000	5.481664	0.815366
0.425000	0.235700	0.764300	1.000000	838110.904412	346.579859	539.740294	0.000000	5.390086	0.841848
0.435000	0.235700	0.764300	1.000000	818781.836141	356.393128	536.436157	0.000000	5.298211	0.868210
0.445000	0.235700	0.764300	1.000000	799824.896818	365.931463	533.134056	0.000000	5.207599	0.894061
0.455000	0.235700	0.764300	1.000000	781784.655191	374.957512	529.926975	0.000000	5.120946	0.918739
0.465000	0.235700	0.764300	1.000000	496084.300459	522.785866	465.886797	0.000000	3.696189	1.361348
0.475000	0.235700	0.764300	1.000000	505073.283876	518.133941	468.236050	0.000000	3.744283	1.346040
0.485000	0.235700	0.764300	1.000000	510777.559943	515.193653	469.709619	0.000000	3.774691	1.336421
0.495000	0.235700	0.764300	1.000000	512734.126979	514.187548	470.211833	0.000000	3.785103	1.333140
0.505000	0.235700	0.764300	1.000000	510783.381886	515.189856	469.711508	0.000000	3.774719	1.336409
0.515000	0.235700	0.764300	1.000000	505127.362294	518.098287	468.253955	0.000000	3.744540	1.345923
0.525000	0.235700	0.764300	1.000000	496252.899715	522.672658	465.944205	0.000000	3.696989	1.360974
0.535000	0.235700	0.764300	1.000000	484778.965060	528.610577	462.914347	0.000000	3.635149	1.380672
0.545000	0.235700	0.764300	1.000000	471321.570696	535.613880	459.294933	0.000000	3.562089	1.404144
0.555000	0.235700	0.764300	1.000000	456419.792852	543.424427	455.199602	0.000000	3.480500	1.430638
0.565000	0.235700	0.764300	1.000000	440514.199066	551.833905	450.720914	0.000000	3.392589	1.459550
0.575000	0.235700	0.764300	1.000000	423953.224659	560.679890	445.932074	0.000000	3.300109	1.490414
0.585000	0.235700	0.764300	1.000000	407009.172643	569.837327	440.890606	0.000000	3.204442	1.522872
0.595000	0.235700	0.764300	1.000000	389894.746833	579.209903	435.642059	0.000000	3.106681	1.556651
0.605000	0.235700	0.764300	1.000000	372776.903961	588.722878	430.223069	0.000000	3.007699	1.591542
0.615000	0.235700	0.764300	1.000000	355787.512873	598.317602	424.663685	0.000000	2.908203	1.627379
0.625000	0.235700	0.764300	1.000000	339031.262174	607.947470	418.989066	0.000000	2.808770	1.664033
0.635000	0.235700	0.764300	1.000000	322591.455927	617.574991	413.220707	0.000000	2.709879	1.701399
0.645000	0.235700	0.764300	1.000000	306534.270807	627.169656	407.377299	0.000000	2.611928	1.739392
0.655000	0.235700	0.764300	1.000000	290911.919370	636.706398	401.475357	0.000000	2.515253	1.777939
0.665000	0.235700	0.764300	1.000000	275765.043138	646.164459	395.529649	0.000000	2.420133	1.816980
0.675000	0.235700	0.764300	1.000000	261124.563926	655.526552	389.553521	0.000000	2.326803	1.856463
0.685000	0.235700	0.764300	1.000000	247013.152055	664.778229	383.559121	0.000000	2.235460	1.896343
0.695000	0.235700	0.764300	1.000000	233446.420727	673.907405	377.557564	0.000000	2.146264	1.936580
0.705000	0.235700	0.764300	1.000000	220433.921493	682.903982	371.559057	0.000000	2.059348	1.977139
0.715000	0.235700	0.764300	1.000000	207979.992061	691.759563	365.572986	0.000000	1.974816	2.017986
0.725000	0.235700	0.764300	1.000000	196084.491488	700.467213	359.607991	0.000000	1.892749	2.059095
0.735000	0.235700	0.764300	1.000000	184743.446694	709.021272	353.672015	0.000000	1.813207	2.100437
0.745000	0.235700	0.764300	1.000000	173949.626725	717.417195	347.772352	0.000000	1.736231	2.141989
0.755000	0.235700	0.764300	1.000000	163693.056143	725.651421	341.915683	0.000000	1.661844	2.183729
0.765000	0.235700	0.764300	1.000000	153961.475490	733.721262	336.108104	0.000000	1.590055	2.225635
0.775000	0.235700	0.764300	1.000000	144740.754616	741.624801	330.355163	0.000000	1.520858	2.267689
0.785000	0.235700	0.764300	1.000000	136015.263152	749.360807	324.661877	0.000000	1.454238	2.309872
0.795000	0.235700	0.764300	1.000000	127768.201575	756.928661	319.032766	0.000000	1.390166	2.352168
0.805000	0.235700	0.764300	1.000000	119981.895714	764.328290	313.471870	0.000000	1.328606	2.394561
0.815000	0.235700	0.764300	1.000000	112638.057265	771.560098	307.982778	0.000000	1.269515	2.437036
0.825000	0.235700	0.764300	1.000000	105718.012652	778.624921	302.568650	0.000000	1.212842	2.479579
0.835000	0.235700	0.764300	1.000000	99202.902541	785.523971	297.232241	0.000000	1.158531	2.522178
0.845000	0.235700	0.764300	1.000000	93073.854188	792.258791	291.975922	0.000000	1.106521	2.564820
0.855000	0.235700	0.764300	1.000000	87312.128817	798.831217	286.801707	0.000000	1.056749	2.607495
0.865000	0.235700	0.764300	1.000000	81899.246145	805.243337	281.711270	0.000000	1.009148	2.650190
0.875000	0.235700	0.764300	1.000000	76817.088151	811.497457	276.705973	0.000000	0.963648	2.692897
0.885000	0.235700	0.764300	1.000000	72047.984110	817.596072	271.786883	0.000000	0.920179	2.735606
0.895000	0.235700	0.764300	1.000000	67574.778820	823.541834	266.954796	0.000000	0.878670	2.778309
0.905000	0.235700	0.764300	1.000000	63380.885902	829.337531	262.210257	0.000000	0.839050	2.820995
0.915000	0.235700	0.764300	1.000000	59450.327910	834.986057	257.553577	0.000000	0.801246	2.863660
0.925000	0.235700	0.764300	1.000000	55767.764883	840.490396	252.984856	0.000000	0.765187	2.906294
0.935000	0.235700	0.764300	1.000000	52318.512886	845.853600	248.503999	0.000000	0.730804	2.948891
0.945000	0.235700	0.764300	1.000000	49088.553913	851.078773	244.110735	0.000000	0.698027	2.991446
0.955000	0.235700	0.764300	1.000000	46064.538452	856.169054	239.804630	0.000000	0.666789	3.033951
0.965000	0.235700	0.764300	1.000000	43233.781860	861.127604	235.585107	0.000000	0.637022	3.076403
0.975000	0.235700	0.764300	1.000000	40584.255595	865.957594	231.451458	0.000000	0.608663	3.118795
0.985000	0.235700	0.764300	1.000000	38104.574228	870.662191	227.402857	0.000000	0.581648	3.161123
0.995000	0.235700	0.764300	1.000000	35783.979064	875.244553	223.438378	0.000000	0.555917	3.203383
1.005000	0.235700	0.764300	1.000000	35783.979391	875.244552	223.438379	0.000000	0.555917	3.203383
1.015000	0.235700	0.764300	1.000000	35783.979731	875.244551	223.438381	0.000000	0.555917	3.203383
1.025000	0.235700	0.764300	1.000000	35783.980083	875.244550	223.438383	0.000000	0.555917	3.203383
1.035000	0.235700	0.764300	1.000000	35783.980451	875.244548	223.438384	0.000000	0.555917	3.203383
1.045000	0.235700	0.764300	1.000000	35783.980833	875.244547	223.438386	0.000000	0.555917	3.203383
1.055000	0.235700	0.764300	1.000000	35783.981233	875.244546	223.438388	0.000000	0.555917	3.203383
1.065000	0.235700	0.764300	1.000000	35783.981650	875.244544	223.438391	0.000000	0.555917	3.203383
1.075000	0.235700	0.764300	1.000000	35783.982087	875.244543	223.438393	0.000000	0.555917	3.203383
1.085000	0.235700	0.764300	1.000000	35783.982545	875.244541	223.438395	0.000000	0.555917	3.203383
1.095000	0.235700	0.764300	1.000000	35783.983026	875.244540	223.438398	0.000000	0.555917	3.203383
1.105000	0.235700	0.764300	1.000000	35783.983530	875.244538	223.438400	0.000000	0.555917	3.203383
1.115000	0.235700	0.764300	1.000000	35783.984060	875.244536	223.438403	0.000000	0.555917	3.203383
1.125000	0.235700	0.764300	1.000000	35783.984618	875.244534	223.438406	0.000000	0.555917	3.203383
1.135000	0.235700	0.764300	1.000000	35783.985205	875.244533	223.438409	0.000000	0.555917	3.203383
1.145000	0.235700	0.764300	1.000000	35783.985823	875.244531	223.438412	0.000000	0.555917	3.203383
1.155000	0.235700	0.764300	1.000000	35783.986475	875.244529	223.438416	0.000000	0.555917	3.203383
1.165000	0.235700	0.764300	1.000000	35783.987163	875.244527	223.438420	0.000000	0.555917	3.203383
1.175000	0.235700	0.764300	1.000000	35783.987888	875.244524	223.438423	0.000000	0.555917	3.203383
1.185000	0.235700	0.764300	1.000000	35783.988654	875.244522	223.438428	0.000000	0.555917	3.203383
1.195000	0.235700	0.764300	1.000000	35783.989463	875.244520	223.438432	0.000000	0.555917	3.203383
1.205000	0.235700	0.764300	1.000000	35783.990317	875.244517	223.438436	0.000000	0.555917	3.203383
1.215000	0.235700	0.764300	1.000000	35783.991220	875.244514	223.438441	0.000000	0.555917	3.203383
1.225000	0.235700	0.764300	1.000000	35783.992173	875.244511	223.438446	0.000000	0.555917	3.203383
1.235000	0.235700	0.764300	1.000000	35783.993181	875.244508	223.438452	0.000000	0.555917	3.203383
1.245000	0.235700	0.764300	1.000000	35783.994245	875.244505	223.438458	0.000000	0.555917	3.203383
1.255000	0.235700	0.764300	1.000000	35783.995370	875.244502	223.438464	0.000000	0.555917	3.203383
1.265000	0.235700	0.764300	1.000000	35783.996558	875.244498	223.438470	0.000000	0.555917	3.203383
1.275000	0.235700	0.764300	1.000000	35783.997813	875.244494	223.438477	0.000000	0.555917	3.203382
1.285000	0.235700	0.764300	1.000000	35783.999138	875.244490	223.438484	0.000000	0.555917	3.203382
1.295000	0.235700	0.764300	1.000000	35784.000538	875.244486	223.438491	0.000000	0.555917	3.203382
1.305000	0.235700	0.764300	1.000000	35784.002015	875.244482	223.438499	0.000000	0.555917	3.203382
1.315000	0.235700	0.764300	1.000000	35784.003574	875.244477	223.438507	0.000000	0.555917	3.203382
1.325000	0.235700	0.764300	1.000000	35784.005219	875.244472	223.438516	0.000000	0.555917	3.203382
1.335000	0.235700	0.764300	1.000000	35784.006953	875.244467	223.438525	0.000000	0.555917	3.203382
1.345000	0.235700	0.764300	1.000000	35784.008781	875.244461	223.438535	0.000000	0.555917	3.203382
1.355000	0.235700	0.764300	1.000000	35784.010707	875.244456	223.438545	0.000000	0.555917	3.203382
1.365000	0.235700	0.764300	1.000000	35784.012736	875.244449	223.438556	0.000000	0.555917	3.203382
1.375000	0.235700	0.764300	1.000000	35784.014871	875.244443	223.438567	0.000000	0.555917	3.203382
1.385000	0.235700	0.764300	1.000000	35784.017117	875.244436	223.438579	0.000000	0.555917	3.203382
1.395000	0.235700	0.764300	1.000000	35784.019480	875.244429	223.438592	0.000000	0.555917	3.203381
1.405000	0.235700	0.764300	1.000000	35784.021963	875.244422	223.438605	0.000000	0.555917	3.203381
1.415000	0.235700	0.764300	1.000000	35784.024571	875.244414	223.438618	0.000000	0.555917	3.203381
1.425000	0.235700	0.764300	1.000000	35784.027309	875.244405	223.438633	0.000000	0.555917	3.203381
1.435000	0.235700	0.764300	1.000000	35784.030181	875.244397	223.438648	0.000000	0.555917	3.203381
1.445000	0.235700	0.764300	1.000000	35784.033193	875.244388	223.438664	0.000000	0.555917	3.203381
1.455000	0.235700	0.764300	1.000000	35784.036350	875.244378	223.438680	0.000000	0.555917	3.203381
1.465000	0.235700	0.764300	1.000000	35784.039655	875.244368	223.438698	0.000000	0.555917	3.203381
1.475000	0.235700	0.764300	1.000000	35784.043115	875.244357	223.438716	0.000000	0.555917	3.203380
1.485000	0.235700	0.764300	1.000000	35784.046733	875.244346	223.438735	0.000000	0.555917	3.203380
1.495000	0.235700	0.764300	1.000000	35784.050515	875.244335	223.438754	0.000000	0.555917	3.203380
