TITLE = "title"
VARIABLES = "X","yO2v","yN2v","Yv","P","u","T","n_tilde","rho_mix","Mach","dp"
ZONE I=150, DATAPACKING=POINT
0.005000	0.235700	0.764300	0.940000	105679.380876	839.533084	302.560021	1145914742691.571289	1.289698	2.480135	0.000005
0.015000	0.235700	0.764300	0.940000	109151.762697	836.326064	305.145616	1145914742691.571289	1.320784	2.460245	0.000005
0.025000	0.235700	0.764300	0.940000	112745.253027	833.072877	307.756094	1145914742691.571289	1.352691	2.440335	0.000005
0.035000	0.235700	0.764300	0.940000	116462.859968	829.773881	310.390668	1145914742691.571289	1.385431	2.420411	0.000005
0.045000	0.235700	0.764300	0.940000	120307.461925	826.429570	313.048442	1145914742691.571289	1.419012	2.400482	0.000005
0.055000	0.235700	0.764300	0.940000	124281.773763	823.040581	315.728408	1145914742691.571289	1.453442	2.380554	0.000005
0.065000	0.235700	0.764300	0.940000	128388.309045	819.607717	318.429435	1145914742691.571289	1.488727	2.360635	0.000005
0.075000	0.235700	0.764300	0.940000	132629.338139	816.131954	321.150264	1145914742691.571289	1.524870	2.340733	0.000005
0.085000	0.235700	0.764300	0.940000	137006.841904	812.614460	323.889499	1145914742691.571289	1.561873	2.320859	0.000005
0.095000	0.235700	0.764300	0.940000	141522.460757	809.056616	326.645595	1145914742691.571289	1.599734	2.301021	0.000005
0.105000	0.235700	0.764300	0.940000	146177.438910	805.460024	329.416855	1145914742691.571289	1.638447	2.281231	0.000005
0.115000	0.235700	0.764300	0.940000	150972.563616	801.826538	332.201415	1145914742691.571289	1.678004	2.261499	0.000005
0.125000	0.235700	0.764300	0.940000	155908.099342	798.158273	334.997238	1145914742691.571289	1.718394	2.241838	0.000005
0.135000	0.235700	0.764300	0.940000	160983.716804	794.457630	337.802105	1145914742691.571289	1.759598	2.222261	0.000005
0.145000	0.235700	0.764300	0.940000	166198.416960	790.727318	340.613607	1145914742691.571289	1.801596	2.202781	0.000005
0.155000	0.235700	0.764300	0.940000	171550.450092	786.970375	343.429130	1145914742691.571289	1.844361	2.183414	0.000005
0.165000	0.235700	0.764300	0.940000	177037.230295	783.190188	346.245855	1145914742691.571289	1.887860	2.164175	0.000005
0.175000	0.235700	0.764300	0.940000	182655.245833	779.390517	349.060742	1145914742691.571289	1.932055	2.145081	0.000005
0.185000	0.235700	0.764300	0.940000	188399.965975	775.575519	351.870528	1145914742691.571289	1.976900	2.126149	0.000005
0.195000	0.235700	0.764300	0.940000	194265.745200	771.749767	354.671713	1145914742691.571289	2.022344	2.107399	0.000005
0.205000	0.235700	0.764300	0.940000	200245.725847	767.918272	357.460563	1145914742691.571289	2.068326	2.088849	0.000005
0.215000	0.235700	0.764300	0.940000	206331.740589	764.086505	360.233095	1145914742691.571289	2.114778	2.070522	0.000005
0.225000	0.235700	0.764300	0.940000	212514.216418	760.260416	362.985082	1145914742691.571289	2.161623	2.052440	0.000005
0.235000	0.235700	0.764300	0.940000	218782.082137	756.446446	365.712042	1145914742691.571289	2.208776	2.034626	0.000005
0.245000	0.235700	0.764300	0.940000	225122.681735	752.651546	368.409244	1145914742691.571289	2.256142	2.017104	0.000005
0.255000	0.235700	0.764300	0.940000	231521.696364	748.883183	371.071710	1145914742691.571289	2.303616	1.999901	0.000005
0.265000	0.235700	0.764300	0.940000	237963.078025	745.149350	373.694213	1145914742691.571289	2.351082	1.983043	0.000005
0.275000	0.235700	0.764300	0.940000	244428.998410	741.458561	376.271291	1145914742691.571289	2.398417	1.966559	0.000005
0.285000	0.235700	0.764300	0.940000	250899.816696	737.819850	378.797255	1145914742691.571289	2.445485	1.950479	0.000005
0.295000	0.235700	0.764300	0.940000	257354.070340	734.242754	381.266203	1145914742691.571289	2.492142	1.934831	0.000005
0.305000	0.235700	0.764300	0.940000	263768.493119	730.737293	383.672037	1145914742691.571289	2.538232	1.919649	0.000005
0.315000	0.235700	0.764300	0.940000	270118.064732	727.313939	386.008488	1145914742691.571289	2.583591	1.904964	0.000005
0.325000	0.235700	0.764300	0.940000	276376.096186	723.983573	388.269145	1145914742691.571289	2.628048	1.890810	0.000005
0.335000	0.235700	0.764300	0.940000	282514.354923	720.757432	390.447480	1145914742691.571289	2.671420	1.877219	0.000005
0.345000	0.235700	0.764300	0.940000	288503.233115	717.647046	392.536896	1145914742691.571289	2.713520	1.864227	0.000005
0.355000	0.235700	0.764300	0.940000	294311.961774	714.664157	394.530761	1145914742691.571289	2.754156	1.851868	0.000005
0.365000	0.235700	0.764300	0.940000	299908.872245	711.820627	396.422463	1145914742691.571289	2.793131	1.840175	0.000005
0.375000	0.235700	0.764300	0.940000	305261.705234	709.128337	398.205457	1145914742691.571289	2.830246	1.829184	0.000005
0.385000	0.235700	0.764300	0.940000	310337.965843	706.599069	399.873330	1145914742691.571289	2.865302	1.818928	0.000005
0.395000	0.235700	0.764300	0.940000	315105.321091	704.244377	401.419858	1145914742691.571289	2.898102	1.809438	0.000005
0.405000	0.235700	0.764300	0.940000	319532.034215	702.075453	402.839075	1145914742691.571289	2.928456	1.800748	0.000005
0.415000	0.235700	0.764300	0.940000	323587.427756	700.102983	404.125335	1145914742691.571289	2.956177	1.792885	0.000005
0.425000	0.235700	0.764300	0.940000	327242.365151	698.336995	405.273387	1145914742691.571289	2.981093	1.785878	0.000005
0.435000	0.235700	0.764300	0.940000	330469.738480	696.786721	406.278438	1145914742691.571289	3.003041	1.779752	0.000005
0.445000	0.235700	0.764300	0.940000	333244.948284	695.460443	407.136219	1145914742691.571289	3.021876	1.774530	0.000005
0.455000	0.235700	0.764300	0.940000	335546.360223	694.365364	407.843045	1145914742691.571289	3.037468	1.770231	0.000005
0.465000	0.235700	0.764300	0.940000	337355.722878	693.507486	408.395868	1145914742691.571289	3.049711	1.766872	0.000005
0.475000	0.235700	0.764300	0.940000	338658.531414	692.891500	408.792327	1145914742691.571289	3.058517	1.764464	0.000005
0.485000	0.235700	0.764300	0.940000	339444.323119	692.520707	409.030779	1145914742691.571289	3.063825	1.763016	0.000005
0.495000	0.235700	0.764300	0.940000	339706.893047	692.396956	409.110328	1145914742691.571289	3.065599	1.762533	0.000005
0.505000	0.235700	0.764300	0.940000	339444.420974	692.520611	409.030840	1145914742691.571289	3.063826	1.763016	0.000005
0.515000	0.235700	0.764300	0.940000	338659.504490	692.890547	408.792939	1145914742691.571289	3.058521	1.764460	0.000005
0.525000	0.235700	0.764300	0.940000	337359.097020	693.504173	408.398002	1145914742691.571289	3.049725	1.766859	0.000005
0.535000	0.235700	0.764300	0.940000	335554.353626	694.357480	407.848129	1145914742691.571289	3.037503	1.770201	0.000005
0.545000	0.235700	0.764300	0.940000	333260.391245	695.445124	407.146116	1145914742691.571289	3.021943	1.774470	0.000005
0.555000	0.235700	0.764300	0.940000	330495.973394	696.760514	406.295406	1145914742691.571289	3.003154	1.779649	0.000005
0.565000	0.235700	0.764300	0.940000	327283.131974	698.295937	405.300039	1145914742691.571289	2.981269	1.785716	0.000005
0.575000	0.235700	0.764300	0.940000	323646.740633	700.042684	404.164590	1145914742691.571289	2.956432	1.792645	0.000005
0.585000	0.235700	0.764300	0.940000	319614.055016	701.991191	402.894108	1145914742691.571289	2.928807	1.800411	0.000005
0.595000	0.235700	0.764300	0.940000	315214.235270	704.131185	401.494051	1145914742691.571289	2.898568	1.808984	0.000005
0.605000	0.235700	0.764300	0.940000	310477.865409	706.451828	399.970211	1145914742691.571289	2.865899	1.818333	0.000005
0.615000	0.235700	0.764300	0.940000	305436.482762	708.941868	398.328657	1145914742691.571289	2.830990	1.828426	0.000005
0.625000	0.235700	0.764300	0.940000	300122.128882	711.589767	396.575660	1145914742691.571289	2.794037	1.839230	0.000005
0.635000	0.235700	0.764300	0.940000	294566.931178	714.383840	394.717637	1145914742691.571289	2.755237	1.850712	0.000005
0.645000	0.235700	0.764300	0.940000	288802.722276	717.312366	392.761090	1145914742691.571289	2.714786	1.862836	0.000005
0.655000	0.235700	0.764300	0.940000	282860.701959	720.363703	390.712553	1145914742691.571289	2.672880	1.875569	0.000005
0.665000	0.235700	0.764300	0.940000	276771.144451	723.526378	388.578541	1145914742691.571289	2.629708	1.888877	0.000005
0.675000	0.235700	0.764300	0.940000	270563.152015	726.789169	386.365509	1145914742691.571289	2.585457	1.902726	0.000005
0.685000	0.235700	0.764300	0.940000	264264.454291	730.141177	384.079813	1145914742691.571289	2.540304	1.917082	0.000005
0.695000	0.235700	0.764300	0.940000	257901.251552	733.571880	381.727677	1145914742691.571289	2.494421	1.931915	0.000005
0.705000	0.235700	0.764300	0.940000	251498.099110	737.071182	379.315161	1145914742691.571289	2.447969	1.947191	0.000005
0.715000	0.235700	0.764300	0.940000	245077.829444	740.629443	376.848145	1145914742691.571289	2.401102	1.962881	0.000005
0.725000	0.235700	0.764300	0.940000	238661.508174	744.237509	374.332305	1145914742691.571289	2.353963	1.978955	0.000005
0.735000	0.235700	0.764300	0.940000	232268.419807	747.886725	371.773098	1145914742691.571289	2.306685	1.995385	0.000005
0.745000	0.235700	0.764300	0.940000	225916.079138	751.568944	369.175754	1145914742691.571289	2.259392	2.012143	0.000005
0.755000	0.235700	0.764300	0.940000	219620.264270	755.276533	366.545263	1145914742691.571289	2.212198	2.029203	0.000005
0.765000	0.235700	0.764300	0.940000	213395.067421	759.002364	363.886377	1145914742691.571289	2.165206	2.046542	0.000005
0.775000	0.235700	0.764300	0.940000	207252.959960	762.739810	361.203602	1145914742691.571289	2.118512	2.064134	0.000005
0.785000	0.235700	0.764300	0.940000	201204.868421	766.482735	358.501200	1145914742691.571289	2.072200	2.081959	0.000005
0.795000	0.235700	0.764300	0.940000	195260.258571	770.225472	355.783190	1145914742691.571289	2.026346	2.099993	0.000005
0.805000	0.235700	0.764300	0.940000	189427.224992	773.962815	353.053351	1145914742691.571289	1.981020	2.118218	0.000005
0.815000	0.235700	0.764300	0.940000	183712.583940	777.689993	350.315231	1145914742691.571289	1.936279	2.136614	0.000005
0.825000	0.235700	0.764300	0.940000	178121.967599	781.402653	347.572144	1145914742691.571289	1.892179	2.155164	0.000005
0.835000	0.235700	0.764300	0.940000	172659.918149	785.096838	344.827187	1145914742691.571289	1.848762	2.173850	0.000005
0.845000	0.235700	0.764300	0.940000	167329.980357	788.768966	342.083240	1145914742691.571289	1.806069	2.192657	0.000005
0.855000	0.234104	0.759126	0.946407	335754.734803	576.251505	474.658260	1145914742691.571289	2.608859	1.367278	0.000005
0.865000	0.226817	0.735497	0.976812	874729.607641	257.211305	583.474043	1145914742691.571289	5.501282	0.558262	0.000004
0.875000	0.222409	0.721201	0.996174	939072.755805	230.509549	583.242715	1145914742691.571289	5.890076	0.503054	0.000002
0.885000	0.221483	0.718199	1.000337	950373.753682	223.361111	583.354367	1145914742691.571289	5.952951	0.487762	-0.000001
0.895000	0.221548	0.718410	1.000043	958469.669099	217.510340	584.605111	1145914742691.571289	5.994497	0.474642	-0.000000
0.905000	0.221544	0.718395	1.000063	965329.944233	212.183093	585.596276	1145914742691.571289	6.026654	0.462641	-0.000001
0.915000	0.221544	0.718396	1.000062	971850.425646	207.005366	586.542324	1145914742691.571289	6.057659	0.451011	-0.000001
0.925000	0.221544	0.718396	1.000062	978048.411070	201.998741	587.434881	1145914742691.571289	6.087012	0.439790	-0.000001
0.935000	0.221544	0.718396	1.000062	983935.284086	197.150239	588.277946	1145914742691.571289	6.114878	0.428946	-0.000001
0.945000	0.221544	0.718396	1.000062	989530.325453	192.454402	589.074763	1145914742691.571289	6.141330	0.418464	-0.000001
0.955000	0.221544	0.718396	1.000062	994848.980531	187.904575	589.828255	1145914742691.571289	6.166452	0.408327	-0.000001
0.965000	0.221544	0.718396	1.000062	999906.328657	183.494970	590.541138	1145914742691.571289	6.190317	0.398520	-0.000001
0.975000	0.221544	0.718396	1.000062	1004716.114219	179.220036	591.215919	1145914742691.571289	6.212995	0.389027	-0.000001
0.985000	0.221544	0.718396	1.000062	1009298.305618	175.075564	591.854773	1145914742691.571289	6.234594	0.379839	-0.000001
0.995000	0.221544	0.718396	1.000062	1013447.182131	171.026102	592.464413	1145914742691.571289	6.253780	0.370875	-0.000001
1.005000	0.221544	0.718396	1.000062	1023894.082094	168.015156	592.908357	1145914742691.571289	6.313515	0.364218	-0.000001
1.015000	0.221544	0.718396	1.000062	1023206.678163	168.212107	592.879469	1145914742691.571289	6.309584	0.364653	-0.000001
1.025000	0.221544	0.718396	1.000062	1023252.708767	168.198907	592.881329	1145914742691.571289	6.309848	0.364624	-0.000001
1.035000	0.221544	0.718396	1.000062	1023249.590499	168.199798	592.881144	1145914742691.571289	6.309831	0.364626	-0.000001
1.045000	0.221544	0.718396	1.000062	1023249.762906	168.199748	592.881116	1145914742691.571289	6.309832	0.364626	-0.000001
1.055000	0.221544	0.718396	1.000062	1023249.713724	168.199765	592.881097	1145914742691.571289	6.309832	0.364626	-0.000001
1.065000	0.221544	0.718396	1.000062	1023249.677921	168.199782	592.881100	1145914742691.571289	6.309832	0.364626	-0.000001
1.075000	0.221544	0.718396	1.000062	1023249.639513	168.199802	592.881124	1145914742691.571289	6.309831	0.364626	-0.000001
1.085000	0.221544	0.718396	1.000062	1023249.599357	168.199826	592.881171	1145914742691.571289	6.309830	0.364626	-0.000001
1.095000	0.221544	0.718396	1.000062	1023249.557214	168.199855	592.881240	1145914742691.571289	6.309829	0.364626	-0.000001
1.105000	0.221544	0.718396	1.000062	1023249.512962	168.199887	592.881331	1145914742691.571289	6.309828	0.364626	-0.000001
1.115000	0.221544	0.718396	1.000062	1023249.466514	168.199924	592.881445	1145914742691.571289	6.309827	0.364626	-0.000001
1.125000	0.221544	0.718396	1.000062	1023249.417830	168.199965	592.881581	1145914742691.571289	6.309825	0.364626	-0.000001
1.135000	0.221544	0.718396	1.000062	1023249.366920	168.200009	592.881737	1145914742691.571289	6.309823	0.364626	-0.000001
1.145000	0.221544	0.718396	1.000062	1023249.313843	168.200057	592.881913	1145914742691.571289	6.309821	0.364627	-0.000001
1.155000	0.221544	0.718396	1.000062	1023249.258713	168.200109	592.882106	1145914742691.571289	6.309818	0.364627	-0.000001
1.165000	0.221544	0.718396	1.000062	1023249.201699	168.200163	592.882314	1145914742691.571289	6.309816	0.364627	-0.000001
1.175000	0.221544	0.718396	1.000062	1023249.143024	168.200220	592.882535	1145914742691.571289	6.309813	0.364627	-0.000001
1.185000	0.221544	0.718396	1.000062	1023249.082965	168.200278	592.882766	1145914742691.571289	6.309810	0.364627	-0.000001
1.195000	0.221544	0.718396	1.000062	1023249.021853	168.200338	592.883004	1145914742691.571289	6.309807	0.364627	-0.000001
1.205000	0.221544	0.718396	1.000062	1023248.960070	168.200398	592.883245	1145914742691.571289	6.309804	0.364627	-0.000001
1.215000	0.221544	0.718396	1.000062	1023248.898045	168.200458	592.883487	1145914742691.571289	6.309801	0.364627	-0.000001
1.225000	0.221544	0.718396	1.000062	1023248.836254	168.200518	592.883724	1145914742691.571289	6.309798	0.364627	-0.000001
1.235000	0.221544	0.718396	1.000062	1023248.775208	168.200575	592.883954	1145914742691.571289	6.309796	0.364627	-0.000001
1.245000	0.221544	0.718396	1.000062	1023248.715458	168.200630	592.884172	1145914742691.571289	6.309793	0.364627	-0.000001
1.255000	0.221544	0.718396	1.000062	1023248.657580	168.200682	592.884373	1145914742691.571289	6.309790	0.364627	-0.000001
1.265000	0.221544	0.718396	1.000062	1023248.602172	168.200730	592.884555	1145914742691.571289	6.309788	0.364627	-0.000001
1.275000	0.221544	0.718396	1.000062	1023248.549848	168.200772	592.884712	1145914742691.571289	6.309786	0.364627	-0.000001
1.285000	0.221544	0.718396	1.000062	1023248.501228	168.200809	592.884841	1145914742691.571289	6.309784	0.364627	-0.000001
1.295000	0.221544	0.718396	1.000062	1023248.456930	168.200839	592.884939	1145914742691.571289	6.309783	0.364627	-0.000001
1.305000	0.221544	0.718396	1.000062	1023248.417562	168.200862	592.885001	1145914742691.571289	6.309782	0.364627	-0.000001
1.315000	0.221544	0.718396	1.000062	1023248.383712	168.200876	592.885024	1145914742691.571289	6.309782	0.364627	-0.000001
1.325000	0.221544	0.718396	1.000062	1023248.355942	168.200882	592.885005	1145914742691.571289	6.309782	0.364627	-0.000001
1.335000	0.221544	0.718396	1.000062	1023248.334773	168.200879	592.884943	1145914742691.571289	6.309782	0.364627	-0.000001
1.345000	0.221544	0.718396	1.000062	1023248.320681	168.200866	592.884835	1145914742691.571289	6.309784	0.364627	-0.000001
1.355000	0.221544	0.718396	1.000062	1023248.314086	168.200843	592.884679	1145914742691.571289	6.309785	0.364627	-0.000001
1.365000	0.221544	0.718396	1.000062	1023248.315342	168.200809	592.884475	1145914742691.571289	6.309787	0.364627	-0.000001
1.375000	0.221544	0.718396	1.000062	1023248.324731	168.200766	592.884223	1145914742691.571289	6.309790	0.364627	-0.000001
1.385000	0.221544	0.718396	1.000062	1023248.342452	168.200712	592.883923	1145914742691.571289	6.309793	0.364627	-0.000001
1.395000	0.221544	0.718396	1.000062	1023248.368616	168.200647	592.883576	1145914742691.571289	6.309797	0.364627	-0.000001
1.405000	0.221544	0.718396	1.000062	1023248.403239	168.200573	592.883184	1145914742691.571289	6.309802	0.364627	-0.000001
1.415000	0.221544	0.718396	1.000062	1023248.446235	168.200489	592.882750	1145914742691.571289	6.309807	0.364627	-0.000001
1.425000	0.221544	0.718396	1.000062	1023248.497412	168.200396	592.882277	1145914742691.571289	6.309812	0.364627	-0.000001
1.435000	0.221544	0.718396	1.000062	1023248.556469	168.200296	592.881769	1145914742691.571289	6.309818	0.364627	-0.000001
1.445000	0.221544	0.718396	1.000062	1023248.622990	168.200188	592.881232	1145914742691.571289	6.309824	0.364627	-0.000001
1.455000	0.221544	0.718396	1.000062	1023248.696449	168.200074	592.880669	1145914742691.571289	6.309830	0.364627	-0.000001
1.465000	0.221544	0.718396	1.000062	1023248.776207	168.199955	592.880089	1145914742691.571289	6.309837	0.364627	-0.000001
1.475000	0.221544	0.718396	1.000062	1023248.861479	168.199832	592.879497	1145914742691.571289	6.309844	0.364627	-0.000001
1.485000	0.221544	0.718396	1.000062	1023248.952418	168.199707	592.878901	1145914742691.571289	6.309851	0.364627	-0.000001
1.495000	0.221544	0.718396	1.000062	1023249.017125	168.199578	592.878310	1145914742691.571289	6.309858	0.364627	-0.000001
