TITLE = "title"
VARIABLES = "X","yO2v","yN2v","Yv","P","u","T","n_tilde","delta_u","rho_mix","Mach","dp"
ZONE I=300, DATAPACKING=POINT
0.002500	0.235700	0.764300	0.940000	103992.972433	827.330632	301.274406	17904917854.555801	-0.479486	1.274534	2.490078	0.000020
0.007500	0.235700	0.764300	0.940000	105690.351165	825.720920	302.555354	17904917854.555801	-0.482522	1.289851	2.480147	0.000020
0.012500	0.235700	0.764300	0.940000	107417.545987	824.099228	303.842770	17904917854.555801	-0.485543	1.305374	2.470206	0.000020
0.017500	0.235700	0.764300	0.940000	109174.962323	822.465574	305.136578	17904917854.555801	-0.488547	1.321104	2.460258	0.000020
0.022500	0.235700	0.764300	0.940000	110963.001786	820.819981	306.436691	17904917854.555801	-0.491533	1.337042	2.450302	0.000020
0.027500	0.235700	0.764300	0.940000	112782.059376	819.162481	307.743020	17904917854.555801	-0.494497	1.353191	2.440339	0.000020
0.032500	0.235700	0.764300	0.940000	114632.524108	817.493114	309.055468	17904917854.555801	-0.497437	1.369550	2.430370	0.000020
0.037500	0.235700	0.764300	0.940000	116514.777543	815.811928	310.373931	17904917854.555801	-0.500352	1.386123	2.420397	0.000020
0.042500	0.235700	0.764300	0.940000	118429.193018	814.118977	311.698300	17904917854.555801	-0.503238	1.402910	2.410419	0.000020
0.047500	0.235700	0.764300	0.940000	120376.133515	812.414328	313.028458	17904917854.555801	-0.506092	1.419912	2.400437	0.000020
0.052500	0.235700	0.764300	0.940000	122355.952243	810.698055	314.364281	17904917854.555801	-0.508913	1.437131	2.390453	0.000020
0.057500	0.235700	0.764300	0.940000	124368.990006	808.970243	315.705638	17904917854.555801	-0.511697	1.454567	2.380467	0.000020
0.062500	0.235700	0.764300	0.940000	126415.574747	807.230987	317.052390	17904917854.555801	-0.514441	1.472220	2.370480	0.000020
0.067500	0.235700	0.764300	0.940000	128496.020089	805.480392	318.404389	17904917854.555801	-0.517143	1.490093	2.360494	0.000020
0.072500	0.235700	0.764300	0.940000	130610.623203	803.718576	319.761481	17904917854.555801	-0.519798	1.508184	2.350509	0.000020
0.077500	0.235700	0.764300	0.940000	132759.664724	801.945667	321.123502	17904917854.555801	-0.522403	1.526496	2.340527	0.000020
0.082500	0.235700	0.764300	0.940000	134943.405552	800.161808	322.490280	17904917854.555801	-0.524955	1.545026	2.330548	0.000020
0.087500	0.235700	0.764300	0.940000	137162.087102	798.367152	323.861633	17904917854.555801	-0.527451	1.563777	2.320574	0.000020
0.092500	0.235700	0.764300	0.940000	139415.927556	796.561868	325.237371	17904917854.555801	-0.529886	1.582747	2.310606	0.000020
0.097500	0.235700	0.764300	0.940000	141705.122157	794.746136	326.617294	17904917854.555801	-0.532257	1.601937	2.300645	0.000020
0.102500	0.235700	0.764300	0.940000	144029.839038	792.920155	328.001192	17904917854.555801	-0.534559	1.621345	2.290693	0.000020
0.107500	0.235700	0.764300	0.940000	146390.219888	791.084136	329.388844	17904917854.555801	-0.536789	1.640971	2.280750	0.000020
0.112500	0.235700	0.764300	0.940000	148786.375450	789.238308	330.780021	17904917854.555801	-0.538941	1.660814	2.270819	0.000020
0.117500	0.235700	0.764300	0.940000	151218.385843	787.382913	332.174481	17904917854.555801	-0.541012	1.680873	2.260900	0.000020
0.122500	0.235700	0.764300	0.940000	153686.295436	785.518215	333.571971	17904917854.555801	-0.542997	1.701145	2.250996	0.000020
0.127500	0.235700	0.764300	0.940000	156190.113227	783.644494	334.972229	17904917854.555801	-0.544891	1.721630	2.241107	0.000020
0.132500	0.235700	0.764300	0.940000	158729.809907	781.762046	336.374979	17904917854.555801	-0.546689	1.742325	2.231236	0.000020
0.137500	0.235700	0.764300	0.940000	161305.313312	779.871191	337.779935	17904917854.555801	-0.548385	1.763229	2.221384	0.000020
0.142500	0.235700	0.764300	0.940000	163916.509535	777.972265	339.186795	17904917854.555801	-0.549975	1.784337	2.211552	0.000020
0.147500	0.235700	0.764300	0.940000	166563.236222	776.065628	340.595250	17904917854.555801	-0.551453	1.805647	2.201743	0.000020
0.152500	0.235700	0.764300	0.940000	169245.284198	774.151658	342.004975	17904917854.555801	-0.552814	1.827157	2.191959	0.000020
0.157500	0.235700	0.764300	0.940000	171962.390319	772.230758	343.415632	17904917854.555801	-0.554051	1.848862	2.182200	0.000020
0.162500	0.235700	0.764300	0.940000	174714.238240	770.303353	344.826869	17904917854.555801	-0.555158	1.870757	2.172470	0.000020
0.167500	0.235700	0.764300	0.940000	177500.452978	768.369893	346.238323	17904917854.555801	-0.556130	1.892840	2.162771	0.000020
0.172500	0.235700	0.764300	0.940000	180320.600416	766.430849	347.649614	17904917854.555801	-0.556960	1.915104	2.153103	0.000020
0.177500	0.235700	0.764300	0.940000	183174.180759	764.486722	349.060350	17904917854.555801	-0.557642	1.937545	2.143470	0.000020
0.182500	0.235700	0.764300	0.940000	186060.629548	762.538035	350.470123	17904917854.555801	-0.558169	1.960157	2.133874	0.000020
0.187500	0.235700	0.764300	0.940000	188979.310857	760.585340	351.878513	17904917854.555801	-0.558534	1.982933	2.124318	0.000020
0.192500	0.235700	0.764300	0.940000	191929.516580	758.629217	353.285081	17904917854.555801	-0.558729	2.005868	2.114802	0.000020
0.197500	0.235700	0.764300	0.940000	194910.462249	756.670273	354.689375	17904917854.555801	-0.558749	2.028954	2.105331	0.000020
0.202500	0.235700	0.764300	0.940000	197921.283995	754.709143	356.090928	17904917854.555801	-0.558586	2.052182	2.095906	0.000020
0.207500	0.235700	0.764300	0.940000	200961.034136	752.746496	357.489257	17904917854.555801	-0.558232	2.075547	2.086530	0.000020
0.212500	0.235700	0.764300	0.940000	204028.681058	750.783026	358.883864	17904917854.555801	-0.557680	2.099037	2.077206	0.000020
0.217500	0.235700	0.764300	0.940000	207123.102027	748.819463	360.274232	17904917854.555801	-0.556922	2.122645	2.067936	0.000020
0.222500	0.235700	0.764300	0.940000	210243.082946	746.856567	361.659831	17904917854.555801	-0.555949	2.146361	2.058724	0.000020
0.227500	0.235700	0.764300	0.940000	213387.314428	744.895129	363.040115	17904917854.555801	-0.554756	2.170174	2.049572	0.000020
0.232500	0.235700	0.764300	0.940000	216554.388049	742.935975	364.414519	17904917854.555801	-0.553332	2.194073	2.040483	0.000020
0.237500	0.235700	0.764300	0.940000	219742.793867	740.979965	365.782464	17904917854.555801	-0.551670	2.218047	2.031461	0.000020
0.242500	0.235700	0.764300	0.940000	222950.918483	739.027991	367.143354	17904917854.555801	-0.549762	2.242084	2.022509	0.000020
0.247500	0.235700	0.764300	0.940000	226177.040691	737.080981	368.496576	17904917854.555801	-0.547600	2.266170	2.013629	0.000020
0.252500	0.235700	0.764300	0.940000	229419.329919	735.139898	369.841502	17904917854.555801	-0.545174	2.290293	2.004825	0.000020
0.257500	0.235700	0.764300	0.940000	232675.844078	733.205740	371.177486	17904917854.555801	-0.542477	2.314438	1.996102	0.000020
0.262500	0.235700	0.764300	0.940000	235944.526826	731.279540	372.503868	17904917854.555801	-0.539501	2.338590	1.987461	0.000020
0.267500	0.235700	0.764300	0.940000	239223.206124	729.362367	373.819970	17904917854.555801	-0.536237	2.362735	1.978907	0.000020
0.272500	0.235700	0.764300	0.940000	242509.592421	727.455325	375.125100	17904917854.555801	-0.532676	2.386856	1.970443	0.000020
0.277500	0.235700	0.764300	0.940000	245801.277131	725.559555	376.418550	17904917854.555801	-0.528811	2.410937	1.962074	0.000020
0.282500	0.235700	0.764300	0.940000	249095.732772	723.676232	377.699596	17904917854.555801	-0.524633	2.434959	1.953803	0.000020
0.287500	0.235700	0.764300	0.940000	252390.310861	721.806567	378.967501	17904917854.555801	-0.520134	2.458906	1.945633	0.000020
0.292500	0.235700	0.764300	0.940000	255682.243329	719.951805	380.221512	17904917854.555801	-0.515306	2.482757	1.937570	0.000020
0.297500	0.235700	0.764300	0.940000	258968.641775	718.113225	381.460863	17904917854.555801	-0.510141	2.506495	1.929616	0.000020
0.302500	0.235700	0.764300	0.940000	262246.498610	716.292139	382.684777	17904917854.555801	-0.504632	2.530098	1.921777	0.000020
0.307500	0.235700	0.764300	0.940000	265512.688330	714.489894	383.892460	17904917854.555801	-0.498772	2.553546	1.914056	0.000020
0.312500	0.235700	0.764300	0.940000	268763.970452	712.707865	385.083110	17904917854.555801	-0.492554	2.576819	1.906458	0.000020
0.317500	0.235700	0.764300	0.940000	271996.990548	710.947458	386.255913	17904917854.555801	-0.485970	2.599893	1.898987	0.000020
0.322500	0.235700	0.764300	0.940000	275208.283533	709.210110	387.410046	17904917854.555801	-0.479016	2.622747	1.891647	0.000020
0.327500	0.235700	0.764300	0.940000	278394.280196	707.497281	388.544675	17904917854.555801	-0.471684	2.645358	1.884443	0.000020
0.332500	0.235700	0.764300	0.940000	281551.307587	705.810459	389.658959	17904917854.555801	-0.463970	2.667701	1.877380	0.000020
0.337500	0.235700	0.764300	0.940000	284675.597256	704.151155	390.752052	17904917854.555801	-0.455869	2.689754	1.870462	0.000020
0.342500	0.235700	0.764300	0.940000	287763.291457	702.520899	391.823101	17904917854.555801	-0.447376	2.711492	1.863693	0.000020
0.347500	0.235700	0.764300	0.940000	290810.448188	700.921241	392.871248	17904917854.555801	-0.438488	2.732889	1.857078	0.000020
0.352500	0.235700	0.764300	0.940000	293813.050856	699.353744	393.895635	17904917854.555801	-0.429203	2.753921	1.850622	0.000020
0.357500	0.235700	0.764300	0.940000	296767.014958	697.819986	394.895401	17904917854.555801	-0.419517	2.774562	1.844330	0.000020
0.362500	0.235700	0.764300	0.940000	299668.199525	696.321552	395.869687	17904917854.555801	-0.409430	2.794786	1.838206	0.000020
0.367500	0.235700	0.764300	0.940000	302512.415638	694.860034	396.817634	17904917854.555801	-0.398941	2.814568	1.832254	0.000020
0.372500	0.235700	0.764300	0.940000	305295.438083	693.437025	397.738392	17904917854.555801	-0.388050	2.833882	1.826480	0.000020
0.377500	0.235700	0.764300	0.940000	308013.017954	692.054116	398.631112	17904917854.555801	-0.376760	2.852701	1.820888	0.000020
0.382500	0.235700	0.764300	0.940000	310660.893830	690.712892	399.494955	17904917854.555801	-0.365071	2.870999	1.815482	0.000020
0.387500	0.235700	0.764300	0.940000	313234.806298	689.414926	400.329095	17904917854.555801	-0.352988	2.888750	1.810268	0.000020
0.392500	0.235700	0.764300	0.940000	315730.511176	688.161778	401.132715	17904917854.555801	-0.340514	2.905929	1.805249	0.000020
0.397500	0.235700	0.764300	0.940000	318143.796146	686.954984	401.905014	17904917854.555801	-0.327656	2.922510	1.800430	0.000020
0.402500	0.235700	0.764300	0.940000	320470.492408	685.796059	402.645207	17904917854.555801	-0.314421	2.938468	1.795816	0.000020
0.407500	0.235700	0.764300	0.940000	322706.494466	684.686485	403.352531	17904917854.555801	-0.300815	2.953779	1.791410	0.000020
0.412500	0.235700	0.764300	0.940000	324847.773939	683.627710	404.026241	17904917854.555801	-0.286849	2.968417	1.787216	0.000020
0.417500	0.235700	0.764300	0.940000	326890.396675	682.621141	404.665618	17904917854.555801	-0.272532	2.982359	1.783239	0.000020
0.422500	0.235700	0.764300	0.940000	328830.539468	681.668139	405.269971	17904917854.555801	-0.257877	2.995583	1.779482	0.000020
0.427500	0.235700	0.764300	0.940000	330664.508116	680.770012	405.838633	17904917854.555801	-0.242895	3.008067	1.775950	0.000020
0.432500	0.235700	0.764300	0.940000	332388.750273	679.928015	406.370973	17904917854.555801	-0.227602	3.019788	1.772645	0.000020
0.437500	0.235700	0.764300	0.940000	333999.877334	679.143339	406.866391	17904917854.555801	-0.212012	3.030728	1.769571	0.000020
0.442500	0.235700	0.764300	0.940000	335494.676905	678.417109	407.324322	17904917854.555801	-0.196142	3.040867	1.766730	0.000020
0.447500	0.235700	0.764300	0.940000	336870.130452	677.750376	407.744241	17904917854.555801	-0.180009	3.050188	1.764127	0.000020
0.452500	0.235700	0.764300	0.940000	338123.426581	677.144118	408.125659	17904917854.555801	-0.163632	3.058672	1.761763	0.000020
0.457500	0.235700	0.764300	0.940000	339251.977277	676.599231	408.468133	17904917854.555801	-0.147031	3.066306	1.759642	0.000020
0.462500	0.235700	0.764300	0.940000	340253.432158	676.116523	408.771261	17904917854.555801	-0.130227	3.073076	1.757765	0.000020
0.467500	0.235700	0.764300	0.940000	341125.687156	675.696717	409.034686	17904917854.555801	-0.113240	3.078968	1.756134	0.000020
0.472500	0.235700	0.764300	0.940000	341866.900419	675.340441	409.258098	17904917854.555801	-0.096094	3.083973	1.754751	0.000020
0.477500	0.235700	0.764300	0.940000	342475.498438	675.048230	409.441237	17904917854.555801	-0.078812	3.088080	1.753618	0.000020
0.482500	0.235700	0.764300	0.940000	342950.189187	674.820517	409.583889	17904917854.555801	-0.061417	3.091283	1.752735	0.000020
0.487500	0.235700	0.764300	0.940000	343289.963426	674.657639	409.685892	17904917854.555801	-0.043933	3.093574	1.752104	0.000020
0.492500	0.235700	0.764300	0.940000	343494.106771	674.559827	409.747132	17904917854.555801	-0.026386	3.094951	1.751725	0.000020
0.497500	0.235700	0.764300	0.940000	343562.197359	674.527212	409.767550	17904917854.555801	-0.008800	3.095410	1.751599	0.000020
0.502500	0.235700	0.764300	0.940000	343494.112981	674.559821	409.747136	17904917854.555801	0.008800	3.094951	1.751725	0.000020
0.507500	0.235700	0.764300	0.940000	343290.030524	674.657574	409.685932	17904917854.555801	0.026388	3.093575	1.752104	0.000020
0.512500	0.235700	0.764300	0.940000	342950.421923	674.820292	409.584030	17904917854.555801	0.043939	3.091284	1.752734	0.000020
0.517500	0.235700	0.764300	0.940000	342476.055788	675.047690	409.441576	17904917854.555801	0.061429	3.088083	1.753616	0.000020
0.522500	0.235700	0.764300	0.940000	341867.989769	675.339384	409.258762	17904917854.555801	0.078832	3.083978	1.754747	0.000020
0.527500	0.235700	0.764300	0.940000	341127.565740	675.694890	409.035832	17904917854.555801	0.096125	3.078977	1.756127	0.000020
0.532500	0.235700	0.764300	0.940000	340256.401752	676.113628	408.773078	17904917854.555801	0.113284	3.073089	1.757754	0.000020
0.537500	0.235700	0.764300	0.940000	339256.383202	676.594925	408.470838	17904917854.555801	0.130285	3.066326	1.759625	0.000020
0.542500	0.235700	0.764300	0.940000	338129.652649	677.138017	408.129496	17904917854.555801	0.147107	3.058700	1.761740	0.000020
0.547500	0.235700	0.764300	0.940000	336878.598143	677.742052	407.749480	17904917854.555801	0.163728	3.050225	1.764095	0.000020
0.552500	0.235700	0.764300	0.940000	335505.838819	678.406098	407.331261	17904917854.555801	0.180127	3.040917	1.766687	0.000020
0.557500	0.235700	0.764300	0.940000	334014.214260	679.129143	406.875348	17904917854.555801	0.196284	3.030792	1.769515	0.000020
0.562500	0.235700	0.764300	0.940000	332406.766848	679.910102	406.382291	17904917854.555801	0.212182	3.019868	1.772575	0.000020
0.567500	0.235700	0.764300	0.940000	330686.728670	680.747821	405.852673	17904917854.555801	0.227802	3.008165	1.775863	0.000020
0.572500	0.235700	0.764300	0.940000	328857.503590	681.641084	405.287113	17904917854.555801	0.243129	2.995702	1.779376	0.000020
0.577500	0.235700	0.764300	0.940000	326922.653680	682.588614	404.686262	17904917854.555801	0.258146	2.982501	1.783111	0.000020
0.582500	0.235700	0.764300	0.940000	324885.880259	683.589082	404.050798	17904917854.555801	0.272841	2.968584	1.787063	0.000020
0.587500	0.235700	0.764300	0.940000	322751.008412	684.641110	403.381428	17904917854.555801	0.287199	2.953974	1.791230	0.000020
0.592500	0.235700	0.764300	0.940000	320521.969679	685.743278	402.678884	17904917854.555801	0.301211	2.938695	1.795606	0.000020
0.597500	0.235700	0.764300	0.940000	318202.786343	686.894129	401.943917	17904917854.555801	0.314865	2.922769	1.800188	0.000020
0.602500	0.235700	0.764300	0.940000	315797.554245	688.092173	401.177302	17904917854.555801	0.328152	2.906223	1.804971	0.000020
0.607500	0.235700	0.764300	0.940000	313310.428022	689.335892	400.379828	17904917854.555801	0.341064	2.889081	1.809951	0.000020
0.612500	0.235700	0.764300	0.940000	310745.603359	690.623747	399.552303	17904917854.555801	0.353595	2.871369	1.815124	0.000020
0.617500	0.235700	0.764300	0.940000	308107.304695	691.954181	398.695544	17904917854.555801	0.365739	2.853113	1.820485	0.000020
0.622500	0.235700	0.764300	0.940000	305399.768382	693.325625	397.810381	17904917854.555801	0.377492	2.834337	1.826029	0.000020
0.627500	0.235700	0.764300	0.940000	302627.230879	694.736500	396.897653	17904917854.555801	0.388849	2.815069	1.831752	0.000020
0.632500	0.235700	0.764300	0.940000	299793.913311	696.185226	395.958206	17904917854.555801	0.399809	2.795334	1.837650	0.000020
0.637500	0.235700	0.764300	0.940000	296904.012874	697.670219	394.992889	17904917854.555801	0.410371	2.775157	1.843717	0.000020
0.642500	0.235700	0.764300	0.940000	293961.686543	699.189902	394.002555	17904917854.555801	0.420533	2.754566	1.849949	0.000020
0.647500	0.235700	0.764300	0.940000	290971.044137	700.742704	392.988059	17904917854.555801	0.430296	2.733585	1.856342	0.000020
0.652500	0.235700	0.764300	0.940000	287936.136453	702.327066	391.950254	17904917854.555801	0.439661	2.712240	1.862890	0.000020
0.657500	0.235700	0.764300	0.940000	284860.947541	703.941440	390.889993	17904917854.555801	0.448631	2.690555	1.869590	0.000020
0.662500	0.235700	0.764300	0.940000	281749.384055	705.584299	389.808122	17904917854.555801	0.457208	2.668556	1.876436	0.000020
0.667500	0.235700	0.764300	0.940000	278605.271047	707.254131	388.705486	17904917854.555801	0.465395	2.646267	1.883424	0.000020
0.672500	0.235700	0.764300	0.940000	275432.342015	708.949449	387.582921	17904917854.555801	0.473197	2.623711	1.890549	0.000020
0.677500	0.235700	0.764300	0.940000	272234.235296	710.668789	386.441257	17904917854.555801	0.480619	2.600913	1.897808	0.000020
0.682500	0.235700	0.764300	0.940000	269014.488657	712.410711	385.281314	17904917854.555801	0.487664	2.577894	1.905195	0.000020
0.687500	0.235700	0.764300	0.940000	265776.532793	714.173805	384.103905	17904917854.555801	0.494340	2.554677	1.912706	0.000020
0.692500	0.235700	0.764300	0.940000	262523.690611	715.956689	382.909830	17904917854.555801	0.500652	2.531283	1.920338	0.000020
0.697500	0.235700	0.764300	0.940000	259259.171892	717.758012	381.699879	17904917854.555801	0.506606	2.507735	1.928085	0.000020
0.702500	0.235700	0.764300	0.940000	255986.071934	719.576455	380.474829	17904917854.555801	0.512210	2.484052	1.935943	0.000020
0.707500	0.235700	0.764300	0.940000	252707.370086	721.410729	379.235445	17904917854.555801	0.517470	2.460255	1.943910	0.000020
0.712500	0.235700	0.764300	0.940000	249425.926326	723.259582	377.982478	17904917854.555801	0.522394	2.436362	1.951979	0.000020
0.717500	0.235700	0.764300	0.940000	246144.483616	725.121793	376.716666	17904917854.555801	0.526990	2.412392	1.960148	0.000020
0.722500	0.235700	0.764300	0.940000	242865.665228	726.996176	375.438732	17904917854.555801	0.531264	2.388364	1.968413	0.000020
0.727500	0.235700	0.764300	0.940000	239591.974990	728.881583	374.149384	17904917854.555801	0.535226	2.364294	1.976770	0.000020
0.732500	0.235700	0.764300	0.940000	236325.800618	730.776896	372.849315	17904917854.555801	0.538882	2.340199	1.985215	0.000020
0.737500	0.235700	0.764300	0.940000	233069.410324	732.681036	371.539203	17904917854.555801	0.542242	2.316095	1.993744	0.000020
0.742500	0.235700	0.764300	0.940000	229824.957952	734.592957	370.219710	17904917854.555801	0.545313	2.291998	2.002355	0.000020
0.747500	0.235700	0.764300	0.940000	226594.481955	736.511650	368.891482	17904917854.555801	0.548103	2.267922	2.011043	0.000020
0.752500	0.235700	0.764300	0.940000	223379.908886	738.436140	367.555150	17904917854.555801	0.550622	2.243881	2.019805	0.000020
0.757500	0.235700	0.764300	0.940000	220183.055159	740.365486	366.211326	17904917854.555801	0.552877	2.219888	2.028639	0.000020
0.762500	0.235700	0.764300	0.940000	217005.628266	742.298782	364.860609	17904917854.555801	0.554876	2.195956	2.037540	0.000020
0.767500	0.235700	0.764300	0.940000	213849.230517	744.235156	363.503582	17904917854.555801	0.556627	2.172098	2.046505	0.000020
0.772500	0.235700	0.764300	0.940000	210715.361668	746.173769	362.140809	17904917854.555801	0.558139	2.148325	2.055533	0.000020
0.777500	0.235700	0.764300	0.940000	207605.420660	748.113816	360.772839	17904917854.555801	0.559420	2.124647	2.064619	0.000020
0.782500	0.235700	0.764300	0.940000	204520.709688	750.054523	359.400207	17904917854.555801	0.560478	2.101076	2.073761	0.000020
0.787500	0.235700	0.764300	0.940000	201462.436596	751.995148	358.023431	17904917854.555801	0.561320	2.077620	2.082956	0.000020
0.792500	0.235700	0.764300	0.940000	198431.717865	753.934982	356.643010	17904917854.555801	0.561955	2.054290	2.092202	0.000020
0.797500	0.235700	0.764300	0.940000	195429.582388	755.873343	355.259433	17904917854.555801	0.562389	2.031093	2.101495	0.000020
0.802500	0.235700	0.764300	0.940000	192456.973421	757.809582	353.873170	17904917854.555801	0.562631	2.008038	2.110834	0.000020
0.807500	0.235700	0.764300	0.940000	189514.753121	759.743078	352.484676	17904917854.555801	0.562688	1.985132	2.120215	0.000020
0.812500	0.235700	0.764300	0.940000	186603.704949	761.673238	351.094391	17904917854.555801	0.562567	1.962383	2.129636	0.000020
0.817500	0.235700	0.764300	0.940000	183724.536772	763.599497	349.702741	17904917854.555801	0.562275	1.939796	2.139096	0.000020
0.822500	0.235700	0.764300	0.940000	180877.884589	765.521316	348.310137	17904917854.555801	0.561819	1.917380	2.148591	0.000020
0.827500	0.235700	0.764300	0.940000	178064.314545	767.438185	346.916975	17904917854.555801	0.561206	1.895138	2.158120	0.000020
0.832500	0.235700	0.764300	0.940000	175284.328053	769.349615	345.523639	17904917854.555801	0.560443	1.873077	2.167680	0.000020
0.837500	0.235693	0.764277	0.940028	222808.494983	700.140144	393.373336	17904917854.555801	-15.969716	2.091260	1.853979	0.000020
0.842500	0.235421	0.763396	0.941114	764390.052285	303.701543	572.937595	17904917854.555801	-65.492080	4.924024	0.673027	0.000020
0.847500	0.235084	0.762302	0.942463	924765.164186	241.753524	587.288073	17904917854.555801	-9.448998	5.809934	0.529461	0.000020
0.852500	0.234733	0.761165	0.943871	926237.997784	239.506537	587.329799	17904917854.555801	-0.322260	5.817459	0.524448	0.000020
0.857500	0.234381	0.760023	0.945290	930826.852765	236.230172	587.575850	17904917854.555801	-0.467686	5.842489	0.517096	0.000019
0.862500	0.234027	0.758874	0.946721	935166.417936	233.056474	587.788816	17904917854.555801	-0.448017	5.866247	0.509988	0.000019
0.867500	0.233671	0.757721	0.948162	939390.880977	229.939645	587.977792	17904917854.555801	-0.435206	5.889486	0.503018	0.000019
0.872500	0.233314	0.756563	0.949614	943499.912468	226.879626	588.144187	17904917854.555801	-0.422626	5.912188	0.496184	0.000019
0.877500	0.232956	0.755400	0.951074	947497.599468	223.874679	588.289017	17904917854.555801	-0.410509	5.934391	0.489483	0.000019
0.882500	0.232596	0.754235	0.952544	951387.097930	220.923248	588.412805	17904917854.555801	-0.398817	5.956090	0.482910	0.000018
0.887500	0.232236	0.753067	0.954021	955172.092423	218.023867	588.516723	17904917854.555801	-0.387530	5.977313	0.476461	0.000018
0.892500	0.231875	0.751898	0.955505	958855.932526	215.175157	588.601686	17904917854.555801	-0.376624	5.998069	0.470133	0.000018
0.897500	0.231514	0.750727	0.956995	962441.991659	212.375821	588.668812	17904917854.555801	-0.366082	6.018379	0.463922	0.000018
0.902500	0.231153	0.749556	0.958490	965932.769541	209.624630	588.718519	17904917854.555801	-0.355885	6.038251	0.457825	0.000018
0.907500	0.230792	0.748385	0.959989	969331.647312	206.920422	588.752105	17904917854.555801	-0.346017	6.057702	0.451838	0.000017
0.912500	0.230431	0.747216	0.961492	972640.860468	204.262096	588.769968	17904917854.555801	-0.336464	6.076733	0.445959	0.000017
0.917500	0.230071	0.746048	0.962997	975863.532665	201.648605	588.773373	17904917854.555801	-0.327211	6.095365	0.440185	0.000017
0.922500	0.229712	0.744883	0.964503	979001.694790	199.078951	588.762698	17904917854.555801	-0.318245	6.113605	0.434513	0.000017
0.927500	0.229354	0.743722	0.966008	982058.020076	196.552184	588.738970	17904917854.555801	-0.309554	6.131468	0.428941	0.000017
0.932500	0.228997	0.742566	0.967513	985034.852946	194.067399	588.703008	17904917854.555801	-0.301128	6.148948	0.423466	0.000016
0.937500	0.228643	0.741415	0.969015	987934.150417	191.623730	588.655400	17904917854.555801	-0.292955	6.166063	0.418085	0.000016
0.942500	0.228290	0.740270	0.970513	990758.884352	189.220348	588.597588	17904917854.555801	-0.285026	6.182829	0.412799	0.000016
0.947500	0.227939	0.739133	0.972006	993510.105626	186.856459	588.529552	17904917854.555801	-0.277331	6.199241	0.407602	0.000016
0.952500	0.227591	0.738005	0.973492	996190.075079	184.531304	588.452325	17904917854.555801	-0.269862	6.215306	0.402495	0.000015
0.957500	0.227246	0.736886	0.974970	998801.251092	182.244154	588.367161	17904917854.555801	-0.262610	6.231035	0.397474	0.000015
0.962500	0.226904	0.735778	0.976439	1001345.024658	179.994311	588.274503	17904917854.555801	-0.255567	6.246426	0.392538	0.000015
0.967500	0.226566	0.734682	0.977895	1003823.187938	177.781105	588.175209	17904917854.555801	-0.248727	6.261496	0.387685	0.000014
0.972500	0.226232	0.733599	0.979338	1006237.774639	175.603891	588.070388	17904917854.555801	-0.242080	6.276240	0.382914	0.000014
0.977500	0.225903	0.732531	0.980766	1008589.989456	173.462054	587.960560	17904917854.555801	-0.235622	6.290657	0.378222	0.000014
0.982500	0.225579	0.731480	0.982176	1010881.738302	171.355002	587.846878	17904917854.555801	-0.229344	6.304753	0.373609	0.000013
0.987500	0.225260	0.730446	0.983567	1013114.995713	169.282154	587.730742	17904917854.555801	-0.223244	6.318533	0.369072	0.000013
0.992500	0.224947	0.729431	0.984934	1015294.262576	167.243488	587.612513	17904917854.555801	-0.217257	6.332035	0.364612	0.000013
0.997500	0.224641	0.728438	0.986278	1017309.178011	165.222712	587.495304	17904917854.555801	-0.213106	6.344506	0.360191	0.000012
1.002500	0.224343	0.727473	0.987586	1022471.388303	163.688370	587.316088	17904917854.555801	-0.162575	6.377326	0.356851	0.000012
1.007500	0.224056	0.726542	0.988851	1022225.587195	163.697911	586.929020	17904917854.555801	0.001008	6.378723	0.356937	0.000011
1.012500	0.223781	0.725650	0.990067	1022342.878785	163.606416	586.570861	17904917854.555801	-0.009642	6.382119	0.356795	0.000011
1.017500	0.223518	0.724797	0.991233	1022432.167752	163.525331	586.226772	17904917854.555801	-0.008532	6.385240	0.356675	0.000011
1.022500	0.223267	0.723983	0.992346	1022520.219709	163.447171	585.898494	17904917854.555801	-0.008213	6.388252	0.356559	0.000010
1.027500	0.223029	0.723212	0.993404	1022603.931786	163.372600	585.585701	17904917854.555801	-0.007826	6.391118	0.356447	0.000010
1.032500	0.222804	0.722484	0.994406	1022684.623489	163.301747	585.290227	17904917854.555801	-0.007427	6.393834	0.356341	0.000009
1.037500	0.222594	0.721801	0.995347	1022761.217587	163.234803	585.012253	17904917854.555801	-0.007009	6.396396	0.356240	0.000009
1.042500	0.222398	0.721165	0.996224	1022834.459838	163.171990	584.753550	17904917854.555801	-0.006570	6.398801	0.356146	0.000008
1.047500	0.222217	0.720580	0.997033	1022903.357376	163.113572	584.514794	17904917854.555801	-0.006104	6.401030	0.356058	0.000007
1.052500	0.222053	0.720049	0.997769	1022967.956217	163.059872	584.297825	17904917854.555801	-0.005606	6.403064	0.355976	0.000007
1.057500	0.221908	0.719576	0.998424	1023028.115912	163.011293	584.104816	17904917854.555801	-0.005067	6.404894	0.355902	0.000006
1.062500	0.221782	0.719170	0.998988	1023083.395447	162.968363	583.938418	17904917854.555801	-0.004475	6.406497	0.355836	0.000005
1.067500	0.221680	0.718838	0.999449	1023133.743560	162.931799	583.802889	17904917854.555801	-0.003811	6.407833	0.355778	0.000004
1.072500	0.221606	0.718596	0.999785	1023178.510566	162.902662	583.704077	17904917854.555801	-0.003020	6.408858	0.355731	0.000003
1.077500	0.221565	0.718466	0.999967	1023218.731689	162.882472	583.652155	17904917854.555801	-0.002235	6.409495	0.355695	0.000002
1.082500	0.221557	0.718440	1.000002	1023238.269329	162.872857	583.637341	17904917854.555801	-0.001396	6.409728	0.355675	0.000001
1.087500	0.221558	0.718442	1.000000	1023251.235790	162.872192	583.643584	17904917854.555801	0.000567	6.409759	0.355674	0.000000
1.092500	0.221558	0.718442	1.000000	1023249.615315	162.871763	583.642938	17904917854.555801	-0.000198	6.409758	0.355673	0.000000
1.097500	0.221558	0.718442	1.000000	1023250.021956	162.871927	583.643052	17904917854.555801	0.000060	6.409757	0.355674	0.000000
1.102500	0.221558	0.718442	1.000000	1023249.907585	162.871876	583.643020	17904917854.555801	-0.000018	6.409757	0.355674	0.000000
1.107500	0.221558	0.718442	1.000000	1023249.941321	162.871890	583.643025	17904917854.555801	0.000005	6.409757	0.355674	0.000000
1.112500	0.221558	0.718442	1.000000	1023249.932305	162.871885	583.643020	17904917854.555801	-0.000002	6.409757	0.355674	0.000000
1.117500	0.221558	0.718442	1.000000	1023249.935980	162.871886	583.643017	17904917854.555801	0.000000	6.409757	0.355674	0.000000
1.122500	0.221558	0.718442	1.000000	1023249.935887	162.871885	583.643014	17904917854.555801	-0.000000	6.409757	0.355674	0.000000
1.127500	0.221558	0.718442	1.000000	1023249.937268	162.871884	583.643011	17904917854.555801	-0.000000	6.409757	0.355674	0.000000
1.132500	0.221558	0.718442	1.000000	1023249.938146	162.871883	583.643007	17904917854.555801	-0.000000	6.409757	0.355674	0.000000
1.137500	0.221558	0.718442	1.000000	1023249.938841	162.871882	583.643004	17904917854.555801	-0.000000	6.409757	0.355674	0.000000
1.142500	0.221558	0.718442	1.000000	1023249.939280	162.871881	583.643001	17904917854.555801	0.000000	6.409757	0.355674	0.000000
1.147500	0.221558	0.718442	1.000000	1023249.939766	162.871881	583.642998	17904917854.555801	-0.000000	6.409757	0.355674	0.000000
1.152500	0.221558	0.718442	1.000000	1023249.941275	162.871880	583.642994	17904917854.555801	-0.000000	6.409758	0.355674	0.000000
1.157500	0.221558	0.718442	1.000000	1023249.941975	162.871879	583.642991	17904917854.555801	-0.000000	6.409758	0.355674	0.000000
1.162500	0.221558	0.718442	1.000000	1023249.942414	162.871878	583.642988	17904917854.555801	0.000000	6.409758	0.355674	0.000000