TITLE = "title"
VARIABLES = "X","yO2v","yN2v","Yv","P","u","T","n_tilde","rho_mix","Mach","dp"
ZONE I=150, DATAPACKING=POINT
0.005000	0.235700	0.764300	0.940000	105701.084856	825.694461	302.576383	17904917854.555801	1.289893	2.479984	0.000020
0.015000	0.235700	0.764300	0.940000	109197.330040	822.411778	305.179129	17904917854.555801	1.321190	2.459931	0.000020
0.025000	0.235700	0.764300	0.940000	112817.017988	819.080457	307.807583	17904917854.555801	1.353326	2.439848	0.000020
0.035000	0.235700	0.764300	0.940000	116563.343427	815.700770	310.460990	17904917854.555801	1.386312	2.419740	0.000020
0.045000	0.235700	0.764300	0.940000	120439.383534	812.273121	313.138492	17904917854.555801	1.420159	2.399613	0.000020
0.055000	0.235700	0.764300	0.940000	124448.064388	808.798061	315.839120	17904917854.555801	1.454876	2.379476	0.000020
0.065000	0.235700	0.764300	0.940000	128592.123424	805.276300	318.561780	17904917854.555801	1.490470	2.359334	0.000020
0.075000	0.235700	0.764300	0.940000	132874.067603	801.708729	321.305253	17904917854.555801	1.526947	2.339198	0.000020
0.085000	0.235700	0.764300	0.940000	137296.127022	798.096426	324.068181	17904917854.555801	1.564308	2.319075	0.000020
0.095000	0.235700	0.764300	0.940000	141860.203688	794.440686	326.849059	17904917854.555801	1.602553	2.298976	0.000020
0.105000	0.235700	0.764300	0.940000	146567.815223	790.743027	329.646227	17904917854.555801	1.641679	2.278910	0.000020
0.115000	0.235700	0.764300	0.940000	151420.033284	787.005222	332.457861	17904917854.555801	1.681679	2.258890	0.000020
0.125000	0.235700	0.764300	0.940000	156417.416550	783.229310	335.281960	17904917854.555801	1.722543	2.238925	0.000020
0.135000	0.235700	0.764300	0.940000	161559.938164	779.417623	338.116343	17904917854.555801	1.764255	2.219030	0.000020
0.145000	0.235700	0.764300	0.940000	166846.907632	775.572810	340.958630	17904917854.555801	1.806795	2.199219	0.000020
0.155000	0.235700	0.764300	0.940000	172276.887258	771.697853	343.806242	17904917854.555801	1.850138	2.179505	0.000020
0.165000	0.235700	0.764300	0.940000	177847.603324	767.796103	346.656385	17904917854.555801	1.894255	2.159905	0.000020
0.175000	0.235700	0.764300	0.940000	183555.852399	763.871292	349.506043	17904917854.555801	1.939106	2.140434	0.000020
0.185000	0.235700	0.764300	0.940000	189397.403305	759.927570	352.351968	17904917854.555801	1.984650	2.121112	0.000020
0.195000	0.235700	0.764300	0.940000	195366.895522	755.969519	355.190674	17904917854.555801	2.030834	2.101958	0.000020
0.205000	0.235700	0.764300	0.940000	201457.735019	752.002189	358.018428	17904917854.555801	2.077601	2.082990	0.000020
0.215000	0.235700	0.764300	0.940000	207661.988843	748.031112	360.831242	17904917854.555801	2.124882	2.064231	0.000020
0.225000	0.235700	0.764300	0.940000	213970.280037	744.062330	363.624869	17904917854.555801	2.172603	2.045703	0.000020
0.235000	0.235700	0.764300	0.940000	220371.684899	740.102417	366.394801	17904917854.555801	2.220677	2.027432	0.000020
0.245000	0.235700	0.764300	0.940000	226853.634915	736.158494	369.136263	17904917854.555801	2.269010	2.009441	0.000020
0.255000	0.235700	0.764300	0.940000	233401.826145	732.238244	371.844216	17904917854.555801	2.317496	1.991757	0.000020
0.265000	0.235700	0.764300	0.940000	240000.139278	728.349928	374.513355	17904917854.555801	2.366020	1.974410	0.000020
0.275000	0.235700	0.764300	0.940000	246630.573974	724.502385	377.138123	17904917854.555801	2.414455	1.957427	0.000020
0.285000	0.235700	0.764300	0.940000	253273.201568	720.705031	379.712708	17904917854.555801	2.462664	1.940841	0.000020
0.295000	0.235700	0.764300	0.940000	259906.140580	716.967857	382.231064	17904917854.555801	2.510499	1.924683	0.000020
0.305000	0.235700	0.764300	0.940000	266505.559756	713.301405	384.686925	17904917854.555801	2.557801	1.908987	0.000020
0.315000	0.235700	0.764300	0.940000	273045.713636	709.716743	387.073825	17904917854.555801	2.604402	1.893786	0.000020
0.325000	0.235700	0.764300	0.940000	279499.015616	706.225429	389.385125	17904917854.555801	2.650122	1.879117	0.000020
0.335000	0.235700	0.764300	0.940000	285836.153389	702.839452	391.614044	17904917854.555801	2.694774	1.865015	0.000020
0.345000	0.235700	0.764300	0.940000	292026.251200	699.571174	393.753700	17904917854.555801	2.738163	1.851518	0.000020
0.355000	0.235700	0.764300	0.940000	298037.082659	696.433243	395.797148	17904917854.555801	2.780087	1.838663	0.000020
0.365000	0.235700	0.764300	0.940000	303835.336777	693.438501	397.737438	17904917854.555801	2.820338	1.826488	0.000020
0.375000	0.235700	0.764300	0.940000	309386.938435	690.599868	399.567662	17904917854.555801	2.858708	1.815030	0.000020
0.385000	0.235700	0.764300	0.940000	314657.422619	687.930219	401.281025	17904917854.555801	2.894985	1.804326	0.000020
0.395000	0.235700	0.764300	0.940000	319612.359536	685.442235	402.870904	17904917854.555801	2.928960	1.794412	0.000020
0.405000	0.235700	0.764300	0.940000	324217.825098	683.148258	404.330927	17904917854.555801	2.960430	1.785323	0.000020
0.415000	0.235700	0.764300	0.940000	328440.908516	681.060116	405.655044	17904917854.555801	2.989195	1.777092	0.000020
0.425000	0.235700	0.764300	0.940000	332250.245818	679.188961	406.837605	17904917854.555801	3.015069	1.769751	0.000020
0.435000	0.235700	0.764300	0.940000	335616.565432	677.545091	407.873437	17904917854.555801	3.037877	1.763329	0.000020
0.445000	0.235700	0.764300	0.940000	338513.229549	676.137781	408.757916	17904917854.555801	3.057462	1.757850	0.000020
0.455000	0.235700	0.764300	0.940000	340916.753311	674.975123	409.487042	17904917854.555801	3.073685	1.753337	0.000020
0.465000	0.235700	0.764300	0.940000	342807.282968	674.063875	410.057495	17904917854.555801	3.086427	1.749808	0.000020
0.475000	0.235700	0.764300	0.940000	344169.014372	673.409338	410.466699	17904917854.555801	3.095596	1.747278	0.000020
0.485000	0.235700	0.764300	0.940000	344990.534564	673.015248	410.712856	17904917854.555801	3.101124	1.745756	0.000020
0.495000	0.235700	0.764300	0.940000	345265.071797	672.883708	410.794982	17904917854.555801	3.102971	1.745249	0.000020
0.505000	0.235700	0.764300	0.940000	344990.642968	673.015144	410.712921	17904917854.555801	3.101124	1.745756	0.000020
0.515000	0.235700	0.764300	0.940000	344170.091962	673.408297	410.467350	17904917854.555801	3.095600	1.747274	0.000020
0.525000	0.235700	0.764300	0.940000	342811.017378	674.060255	410.059760	17904917854.555801	3.086443	1.749794	0.000020
0.535000	0.235700	0.764300	0.940000	340925.593215	674.966513	409.492435	17904917854.555801	3.073724	1.753303	0.000020
0.545000	0.235700	0.764300	0.940000	338530.290918	676.121065	408.768409	17904917854.555801	3.057538	1.757785	0.000020
0.555000	0.235700	0.764300	0.940000	335645.515295	677.516520	407.891415	17904917854.555801	3.038005	1.763217	0.000020
0.565000	0.235700	0.764300	0.940000	332295.169990	679.144245	406.865820	17904917854.555801	3.015267	1.769577	0.000020
0.575000	0.235700	0.764300	0.940000	328506.170258	680.994522	405.696562	17904917854.555801	2.989483	1.776835	0.000020
0.585000	0.235700	0.764300	0.940000	324307.921621	683.056711	404.389076	17904917854.555801	2.960826	1.784961	0.000020
0.595000	0.235700	0.764300	0.940000	319731.782739	685.319424	402.949211	17904917854.555801	2.929485	1.793924	0.000020
0.605000	0.235700	0.764300	0.940000	314810.529576	687.770695	401.383163	17904917854.555801	2.895656	1.803688	0.000020
0.615000	0.235700	0.764300	0.940000	309577.835995	690.398146	399.697394	17904917854.555801	2.859543	1.814219	0.000020
0.625000	0.235700	0.764300	0.940000	304067.783396	693.189144	397.898560	17904917854.555801	2.821353	1.825479	0.000020
0.635000	0.235700	0.764300	0.940000	298314.409309	696.130946	395.993445	17904917854.555801	2.781294	1.837431	0.000020
0.645000	0.235700	0.764300	0.940000	292351.302051	699.210834	393.988897	17904917854.555801	2.739574	1.850038	0.000020
0.655000	0.235700	0.764300	0.940000	286211.245923	702.416226	391.891771	17904917854.555801	2.696398	1.863262	0.000020
0.665000	0.235700	0.764300	0.940000	279925.919040	705.734784	389.708877	17904917854.555801	2.651964	1.877067	0.000020
0.675000	0.235700	0.764300	0.940000	273525.643850	709.154495	387.446937	17904917854.555801	2.606466	1.891416	0.000020
0.685000	0.235700	0.764300	0.940000	267039.188728	712.663746	385.112544	17904917854.555801	2.560090	1.906273	0.000020
0.695000	0.235700	0.764300	0.940000	260493.617782	716.251376	382.712131	17904917854.555801	2.513010	1.921605	0.000020
0.705000	0.235700	0.764300	0.940000	253914.185067	719.906725	380.251944	17904917854.555801	2.465395	1.937377	0.000020
0.715000	0.235700	0.764300	0.940000	247324.268827	723.619659	377.738018	17904917854.555801	2.417400	1.953558	0.000020
0.725000	0.235700	0.764300	0.940000	240745.341075	727.380597	375.176161	17904917854.555801	2.369173	1.970116	0.000020
0.735000	0.235700	0.764300	0.940000	234196.967720	731.180522	372.571941	17904917854.555801	2.320848	1.987021	0.000020
0.745000	0.235700	0.764300	0.940000	227696.834539	735.010982	369.930677	17904917854.555801	2.272552	2.004246	0.000020
0.755000	0.235700	0.764300	0.940000	221260.794520	738.864089	367.257432	17904917854.555801	2.224399	2.021763	0.000020
0.765000	0.235700	0.764300	0.940000	214902.932390	742.732511	364.557010	17904917854.555801	2.176493	2.039546	0.000020
0.775000	0.235700	0.764300	0.940000	208635.642539	746.609461	361.833958	17904917854.555801	2.128928	2.057572	0.000020
0.785000	0.235700	0.764300	0.940000	202469.716910	750.488675	359.092564	17904917854.555801	2.081791	2.075816	0.000020
0.795000	0.235700	0.764300	0.940000	196414.439875	754.364398	356.336861	17904917854.555801	2.035155	2.094259	0.000020
0.805000	0.235700	0.764300	0.940000	190477.687484	758.231362	353.570636	17904917854.555801	1.989090	2.112878	0.000020
0.815000	0.235700	0.764300	0.940000	184666.028893	762.084762	350.797431	17904917854.555805	1.943652	2.131655	0.000020
0.825000	0.235700	0.764300	0.940000	178984.828094	765.920230	348.020552	17904917854.555805	1.898894	2.150572	0.000020
0.835000	0.235629	0.764069	0.940284	321277.071579	588.099718	459.870276	17904917854.555805	2.579238	1.445830	0.000020
0.845000	0.235022	0.762101	0.942712	863762.905702	263.283581	582.469273	17904917854.555805	5.471487	0.578844	0.000020
0.855000	0.234335	0.759873	0.945477	926406.269240	237.899657	587.174224	17904917854.555805	5.818556	0.520909	0.000019
0.865000	0.233632	0.757595	0.948319	933425.624499	232.089288	587.497164	17904917854.555805	5.856741	0.507908	0.000019
0.875000	0.232925	0.755301	0.951200	941676.589209	225.942045	587.845334	17904917854.555801	5.902275	0.494173	0.000019
0.885000	0.232213	0.752994	0.954114	949429.232069	220.032807	588.104739	17904917854.555801	5.945458	0.481006	0.000018
0.895000	0.231500	0.750680	0.957056	956779.211037	214.327428	588.287460	17904917854.555801	5.986798	0.468325	0.000018
0.905000	0.230786	0.748364	0.960016	963748.285360	208.816566	588.400409	17904917854.555801	6.026388	0.456105	0.000017
0.915000	0.230073	0.746054	0.962989	970358.970943	203.491003	588.450379	17904917854.555801	6.064324	0.444321	0.000017
0.925000	0.229364	0.743755	0.965966	976631.805773	198.342459	588.443952	17904917854.555801	6.100691	0.432951	0.000017
0.935000	0.228661	0.741474	0.968937	982585.731372	193.363414	588.387594	17904917854.555801	6.135561	0.421975	0.000016
0.945000	0.227966	0.739220	0.971892	988238.286392	188.547006	588.287744	17904917854.555801	6.168997	0.411374	0.000016
0.955000	0.227281	0.736999	0.974820	993605.768534	183.886939	588.150902	17904917854.555801	6.201054	0.401132	0.000015
0.965000	0.226609	0.734822	0.977709	998703.373799	179.377428	587.983722	17904917854.555801	6.231776	0.391234	0.000014
0.975000	0.225954	0.732698	0.980543	1003545.068750	175.013108	587.793126	17904917854.555801	6.261197	0.381664	0.000014
0.985000	0.225319	0.730638	0.983307	1008151.317073	170.790067	587.586279	17904917854.555801	6.289389	0.372413	0.000013
0.995000	0.224708	0.728655	0.985984	1012312.947910	166.672445	587.375419	17904917854.555801	6.314938	0.363397	0.000012
1.005000	0.224130	0.726781	0.988526	1022647.378576	163.595433	587.042804	17904917854.555801	6.380445	0.356692	0.000012
1.015000	0.223596	0.725049	0.990887	1022165.761702	163.619266	586.318802	17904917854.555801	6.382930	0.356866	0.000011
1.025000	0.223110	0.723476	0.993043	1022399.171849	163.449631	585.685261	17904917854.555801	6.389115	0.356600	0.000010
1.035000	0.222677	0.722071	0.994974	1022570.269264	163.308274	585.115833	17904917854.555801	6.394451	0.356385	0.000009
1.045000	0.222301	0.720851	0.996658	1022731.471480	163.181455	584.619764	17904917854.555801	6.399183	0.356190	0.000008
1.055000	0.221988	0.719838	0.998061	1022878.370893	163.072025	584.206862	17904917854.555801	6.403206	0.356019	0.000006
1.065000	0.221750	0.719065	0.999133	1023010.510457	162.982494	583.892154	17904917854.555801	6.406400	0.355875	0.000005
1.075000	0.221603	0.718589	0.999795	1023127.145481	162.916953	583.699152	17904917854.555801	6.408580	0.355763	0.000003
1.085000	0.221559	0.718446	0.999994	1023222.010072	162.879714	583.643805	17904917854.555801	6.409573	0.355691	0.000001
1.095000	0.221555	0.718431	1.000015	1023197.567544	162.870474	583.604040	17904917854.555801	6.409688	0.355660	-0.000001
1.105000	0.221562	0.718454	0.999983	1023316.384569	162.876166	583.689473	17904917854.555801	6.409837	0.355695	0.000001
1.115000	0.221554	0.718430	1.000017	1023181.661863	162.866343	583.595726	17904917854.555801	6.409688	0.355648	-0.000001
1.125000	0.221562	0.718454	0.999983	1023320.481538	162.877697	583.690968	17904917854.555801	6.409829	0.355699	0.000001
1.135000	0.221554	0.718430	1.000017	1023180.569317	162.865892	583.595506	17904917854.555801	6.409690	0.355647	-0.000001
1.145000	0.221562	0.718454	0.999983	1023320.505052	162.878007	583.691065	17904917854.555801	6.409828	0.355700	0.000001
1.155000	0.221554	0.718430	1.000017	1023181.899521	162.864634	583.595963	17904917854.555801	6.409685	0.355645	-0.000001
1.165000	0.221555	0.718432	1.000014	1023214.205137	162.874416	583.613001	17904917854.555801	6.409666	0.355671	-0.000001
1.175000	0.221555	0.718432	1.000014	1023204.118824	162.872286	583.609529	17904917854.555801	6.409691	0.355665	-0.000001
1.185000	0.221562	0.718454	0.999983	1023313.085720	162.876848	583.688448	17904917854.555801	6.409843	0.355697	0.000001
1.195000	0.221561	0.718452	0.999986	1023288.575404	162.870203	583.674337	17904917854.555801	6.409843	0.355678	0.000001
1.205000	0.221561	0.718452	0.999986	1023296.423822	162.871423	583.677232	17904917854.555801	6.409825	0.355682	0.000001
1.215000	0.221554	0.718430	1.000017	1023188.359786	162.867019	583.598598	17904917854.555801	6.409669	0.355651	-0.000001
1.225000	0.221555	0.718432	1.000014	1023210.925906	162.875007	583.612252	17904917854.555801	6.409674	0.355672	-0.000001
1.235000	0.221562	0.718454	0.999983	1023310.865398	162.876230	583.687973	17904917854.555801	6.409848	0.355695	0.000001
1.245000	0.221561	0.718452	0.999986	1023290.493182	162.869255	583.674990	17904917854.555801	6.409835	0.355676	0.000001
1.255000	0.221554	0.718430	1.000017	1023189.918337	162.867771	583.599175	17904917854.555801	6.409663	0.355652	-0.000001
1.265000	0.221555	0.718432	1.000014	1023210.410084	162.874862	583.612240	17904917854.555801	6.409674	0.355672	-0.000001
1.275000	0.221562	0.718454	0.999983	1023310.937997	162.876347	583.688107	17904917854.555801	6.409846	0.355695	0.000001
1.285000	0.221561	0.718452	0.999986	1023290.394210	162.869299	583.675084	17904917854.555801	6.409834	0.355676	0.000001
1.295000	0.221554	0.718430	1.000017	1023189.899012	162.867820	583.599287	17904917854.555801	6.409661	0.355652	-0.000001
1.305000	0.221555	0.718432	1.000014	1023210.095901	162.875050	583.612282	17904917854.555801	6.409674	0.355672	-0.000001
1.315000	0.221562	0.718454	0.999983	1023312.329131	162.875149	583.688605	17904917854.555801	6.409840	0.355693	0.000001
1.325000	0.221554	0.718430	1.000017	1023184.104610	162.865703	583.597080	17904917854.555801	6.409671	0.355647	-0.000001
1.335000	0.221555	0.718432	1.000014	1023211.854748	162.875661	583.612890	17904917854.555801	6.409667	0.355673	-0.000001
1.345000	0.221562	0.718454	0.999983	1023310.639121	162.876126	583.688248	17904917854.555801	6.409844	0.355695	0.000001
1.355000	0.221561	0.718452	0.999986	1023288.969151	162.870721	583.674912	17904917854.555801	6.409835	0.355679	0.000001
1.365000	0.221561	0.718452	0.999986	1023296.010367	162.871579	583.677610	17904917854.555801	6.409820	0.355682	0.000001
1.375000	0.221554	0.718430	1.000017	1023188.180073	162.867278	583.599031	17904917854.555801	6.409663	0.355651	-0.000001
1.385000	0.221555	0.718432	1.000014	1023210.651780	162.875252	583.612663	17904917854.555801	6.409669	0.355672	-0.000001
1.395000	0.221562	0.718454	0.999983	1023310.863614	162.876352	583.688449	17904917854.555801	6.409842	0.355695	0.000001
1.405000	0.221561	0.718452	0.999986	1023289.032357	162.870634	583.675069	17904917854.555801	6.409833	0.355679	0.000001
1.415000	0.221561	0.718452	0.999986	1023294.769375	162.872789	583.677406	17904917854.555801	6.409822	0.355684	0.000001
1.425000	0.221561	0.718452	0.999986	1023292.927879	162.872258	583.676899	17904917854.555801	6.409828	0.355683	0.000001
1.435000	0.221561	0.718452	0.999986	1023294.808021	162.871212	583.677426	17904917854.555801	6.409821	0.355681	0.000001
1.445000	0.221554	0.718430	1.000017	1023188.422351	162.867496	583.599282	17904917854.555801	6.409660	0.355652	-0.000001
1.455000	0.221555	0.718432	1.000014	1023210.238491	162.875424	583.612751	17904917854.555801	6.409668	0.355673	-0.000001
1.465000	0.221562	0.718454	0.999983	1023312.043397	162.875302	583.688967	17904917854.555801	6.409836	0.355693	0.000001
1.475000	0.221554	0.718430	1.000017	1023183.676118	162.866057	583.597407	17904917854.555801	6.409667	0.355648	-0.000001
1.485000	0.221555	0.718432	1.000014	1023213.021245	162.874644	583.613646	17904917854.555801	6.409658	0.355671	-0.000001
1.495000	0.221555	0.718431	1.000014	1023204.199885	162.872333	583.610506	17904917854.555801	6.409679	0.355665	-0.000001
