TITLE = "title"
VARIABLES = "X","yO2v","yN2v","Yv","P","u","T","n_tilde","rho_mix","Mach"
ZONE I=150, DATAPACKING=POINT
0.005000	0.235700	0.764300	0.940000	108366.661767	1507.272113	304.613175	143239342836.446410	1.313577	4.954242
0.015000	0.235700	0.764300	0.940000	114765.335604	1504.040325	309.290291	143239342836.446410	1.370096	4.908728
0.025000	0.235700	0.764300	0.940000	121539.157048	1500.753147	314.029915	143239342836.446410	1.429058	4.863476
0.035000	0.235700	0.764300	0.940000	128706.613378	1497.411151	318.830369	143239342836.446410	1.490541	4.818503
0.045000	0.235700	0.764300	0.940000	136286.449519	1494.015095	323.689713	143239342836.446410	1.554620	4.773827
0.055000	0.235700	0.764300	0.940000	144297.554767	1490.565937	328.605730	143239342836.446410	1.621370	4.729467
0.065000	0.235700	0.764300	0.940000	152758.828281	1487.064855	333.575906	143239342836.446410	1.690861	4.685444
0.075000	0.235700	0.764300	0.940000	161689.021262	1483.513262	338.597411	143239342836.446410	1.763156	4.641779
0.085000	0.235700	0.764300	0.940000	171106.553738	1479.912827	343.667087	143239342836.446410	1.838315	4.598492
0.095000	0.235700	0.764300	0.940000	181029.303952	1476.265490	348.781425	143239342836.446410	1.916392	4.555607
0.105000	0.235700	0.764300	0.940000	191474.368468	1472.573485	353.936551	143239342836.446410	1.997429	4.513148
0.115000	0.235700	0.764300	0.940000	202457.791360	1468.839355	359.128206	143239342836.446410	2.081462	4.471139
0.125000	0.235700	0.764300	0.940000	213994.261125	1465.065978	364.351736	143239342836.446410	2.168512	4.429606
0.135000	0.235700	0.764300	0.940000	226096.774431	1461.256579	369.602069	143239342836.446410	2.258591	4.388575
0.145000	0.235700	0.764300	0.940000	238776.266360	1457.414752	374.873707	143239342836.446410	2.351694	4.348074
0.155000	0.235700	0.764300	0.940000	252041.207493	1453.544481	380.160710	143239342836.446410	2.447799	4.308131
0.165000	0.235700	0.764300	0.940000	265897.169099	1449.650153	385.456690	143239342836.446410	2.546868	4.268777
0.175000	0.235700	0.764300	0.940000	280346.358674	1445.736576	390.754798	143239342836.446410	2.648839	4.230042
0.185000	0.235700	0.764300	0.940000	295387.129336	1441.808993	396.047718	143239342836.446410	2.753630	4.191958
0.195000	0.235700	0.764300	0.940000	311013.467914	1437.873094	401.327671	143239342836.446410	2.861133	4.154557
0.205000	0.235700	0.764300	0.940000	327214.468183	1433.935027	406.586408	143239342836.446410	2.971215	4.117872
0.215000	0.235700	0.764300	0.940000	343973.797325	1430.001401	411.815218	143239342836.446410	3.083712	4.081939
0.225000	0.235700	0.764300	0.940000	361269.165573	1426.079292	417.004935	143239342836.446410	3.198429	4.046793
0.235000	0.235700	0.764300	0.940000	379071.810808	1422.176242	422.145954	143239342836.446410	3.315142	4.012469
0.245000	0.235700	0.764300	0.940000	397346.011832	1418.300250	427.228247	143239342836.446410	3.433589	3.979005
0.255000	0.235700	0.764300	0.940000	416048.645787	1414.459763	432.241386	143239342836.446410	3.553475	3.946438
0.265000	0.235700	0.764300	0.940000	435128.806892	1410.663658	437.174574	143239342836.446410	3.674468	3.914806
0.275000	0.235700	0.764300	0.940000	454527.505013	1406.921220	442.016680	143239342836.446410	3.796200	3.884147
0.285000	0.235700	0.764300	0.940000	474177.463533	1403.242111	446.756278	143239342836.446410	3.918265	3.854501
0.295000	0.235700	0.764300	0.940000	494003.036467	1399.636330	451.381700	143239342836.446410	4.040223	3.825907
0.305000	0.235700	0.764300	0.940000	513920.264486	1396.114176	455.881082	143239342836.446410	4.161595	3.798403
0.315000	0.235700	0.764300	0.940000	533837.088490	1392.686188	460.242432	143239342836.446410	4.281874	3.772029
0.325000	0.235700	0.764300	0.940000	553653.737441	1389.363090	464.453691	143239342836.446410	4.400517	3.746822
0.335000	0.235700	0.764300	0.940000	573263.304195	1386.155724	468.502808	143239342836.446410	4.516958	3.722822
0.345000	0.235700	0.764300	0.940000	592552.519088	1383.074974	472.377814	143239342836.446410	4.630605	3.700065
0.355000	0.235700	0.764300	0.940000	611402.726006	1380.131687	476.066905	143239342836.446410	4.740850	3.678588
0.365000	0.235700	0.764300	0.940000	629691.059677	1377.336587	479.558529	143239342836.446410	4.847070	3.658426
0.375000	0.235700	0.764300	0.940000	647291.816062	1374.700183	482.841469	143239342836.446410	4.948637	3.639613
0.385000	0.235700	0.764300	0.940000	664078.000346	1372.232676	485.904937	143239342836.446410	5.044925	3.622182
0.395000	0.235700	0.764300	0.940000	679923.029198	1369.943862	488.738662	143239342836.446410	5.135314	3.606162
0.405000	0.235700	0.764300	0.940000	694702.556296	1367.843032	491.332980	143239342836.446410	5.219204	3.591583
0.415000	0.235700	0.764300	0.940000	708296.382807	1365.938882	493.678917	143239342836.446410	5.296015	3.578470
0.425000	0.235700	0.764300	0.940000	720590.408103	1364.239412	495.768279	143239342836.446410	5.365204	3.566847
0.435000	0.235700	0.764300	0.940000	731478.570909	1362.751840	497.593721	143239342836.446410	5.426268	3.556734
0.445000	0.235700	0.764300	0.940000	740864.727688	1361.482524	499.148827	143239342836.446410	5.478752	3.548150
0.455000	0.235700	0.764300	0.940000	748664.413751	1360.436882	500.428166	143239342836.446410	5.522260	3.541109
0.465000	0.235700	0.764300	0.940000	754806.433536	1359.619328	501.427348	143239342836.446410	5.556456	3.535623
0.475000	0.235700	0.764300	0.940000	759234.229862	1359.033227	502.143071	143239342836.446410	5.581074	3.531701
0.485000	0.235700	0.764300	0.940000	761906.987678	1358.680847	502.573147	143239342836.446410	5.595922	3.529346
0.495000	0.235700	0.764300	0.940000	762800.435724	1358.563336	502.716529	143239342836.446410	5.600884	3.528562
0.505000	0.235700	0.764300	0.940000	761907.319242	1358.680710	502.573315	143239342836.446410	5.595923	3.529345
0.515000	0.235700	0.764300	0.940000	759237.527965	1359.031856	502.144745	143239342836.446410	5.581080	3.531691
0.525000	0.235700	0.764300	0.940000	754817.875498	1359.614550	501.433186	143239342836.446410	5.556475	3.535591
0.535000	0.235700	0.764300	0.940000	748691.538290	1360.425484	500.442102	143239342836.446410	5.522306	3.541032
0.545000	0.235700	0.764300	0.940000	740917.173981	1361.460315	499.176016	143239342836.446410	5.478842	3.548000
0.555000	0.235700	0.764300	0.940000	731567.749495	1362.713720	497.640459	143239342836.446410	5.426420	3.556476
0.565000	0.235700	0.764300	0.940000	720729.118232	1364.179458	495.841911	143239342836.446410	5.365440	3.566438
0.575000	0.235700	0.764300	0.940000	708498.392691	1365.850454	493.787735	143239342836.446410	5.296358	3.577864
0.585000	0.235700	0.764300	0.940000	694982.163675	1367.718876	491.486101	143239342836.446410	5.219677	3.590726
0.595000	0.235700	0.764300	0.940000	680294.619553	1369.776229	488.945907	143239342836.446410	5.135943	3.604996
0.605000	0.235700	0.764300	0.940000	664555.619196	1372.013441	486.176695	143239342836.446410	5.045731	3.620643
0.615000	0.235700	0.764300	0.940000	647888.770056	1374.420968	483.188565	143239342836.446410	4.949643	3.637635
0.625000	0.235700	0.764300	0.940000	630419.558896	1376.988877	479.992089	143239342836.446410	4.848294	3.655937
0.635000	0.235700	0.764300	0.940000	612273.577174	1379.706950	476.598220	143239342836.446410	4.742309	3.675514
0.645000	0.235700	0.764300	0.940000	593574.876457	1382.564769	473.018211	143239342836.446410	4.632314	3.696328
0.655000	0.235700	0.764300	0.940000	574444.481936	1385.551805	469.263526	143239342836.446410	4.518927	3.718344
0.665000	0.235700	0.764300	0.940000	554999.084520	1388.657499	465.345762	143239342836.446410	4.402753	3.741522
0.675000	0.235700	0.764300	0.940000	535349.924531	1391.871341	461.276576	143239342836.446410	4.284381	3.765823
0.685000	0.235700	0.764300	0.940000	515601.872924	1395.182935	457.067606	143239342836.446410	4.164373	3.791209
0.695000	0.235700	0.764300	0.940000	495852.709608	1398.582066	452.730412	143239342836.446410	4.043268	3.817641
0.705000	0.235700	0.764300	0.940000	476192.592860	1402.058753	448.276412	143239342836.446410	3.921573	3.845079
0.715000	0.235700	0.764300	0.940000	456703.709317	1405.603298	443.716828	143239342836.446410	3.799759	3.873484
0.725000	0.235700	0.764300	0.940000	437460.090394	1409.206328	439.062636	143239342836.446410	3.678268	3.902819
0.735000	0.235700	0.764300	0.940000	418527.578460	1412.858829	434.324528	143239342836.446410	3.557501	3.933045
0.745000	0.235700	0.764300	0.940000	399963.924431	1416.552171	429.512867	143239342836.446410	3.437826	3.964125
0.755000	0.235700	0.764300	0.940000	381818.997671	1420.278136	424.637665	143239342836.446410	3.319572	3.996022
0.765000	0.235700	0.764300	0.940000	364135.089017	1424.028926	419.708550	143239342836.446410	3.203034	4.028700
0.775000	0.235700	0.764300	0.940000	346947.288282	1427.797178	414.734753	143239342836.446410	3.088472	4.062124
0.785000	0.235700	0.764300	0.940000	330283.918641	1431.575966	409.725084	143239342836.446410	2.976111	4.096259
0.795000	0.235700	0.764300	0.940000	314167.011643	1435.358808	404.687927	143239342836.446410	2.866145	4.131073
0.805000	0.235700	0.764300	0.940000	298612.808234	1439.139655	399.631233	143239342836.446410	2.758737	4.166533
0.815000	0.235700	0.764300	0.940000	283632.272906	1442.912891	394.562513	143239342836.446410	2.654022	4.202607
0.825000	0.235700	0.764300	0.940000	269231.609919	1446.673324	389.488841	143239342836.446410	2.552108	4.239265
0.835000	0.235700	0.764300	0.940000	255412.772287	1450.416169	384.416858	143239342836.446410	2.453079	4.276479
0.845000	0.235700	0.764300	0.940000	242173.955973	1454.137044	379.352774	143239342836.446410	2.356995	4.314218
0.855000	0.235700	0.764300	0.940000	229510.073294	1457.831946	374.302381	143239342836.446410	2.263897	4.352457
0.865000	0.235700	0.764300	0.940000	217413.201023	1461.497241	369.271058	143239342836.446410	2.173807	4.391168
0.875000	0.235700	0.764300	0.940000	205872.999962	1465.129647	364.263788	143239342836.446410	2.086732	4.430327
0.885000	0.235700	0.764300	0.940000	194877.103872	1468.726212	359.285164	143239342836.446410	2.002661	4.469909
0.895000	0.235700	0.764300	0.940000	184411.476657	1472.284301	354.339409	143239342836.446410	1.921574	4.509891
0.905000	0.235700	0.764300	0.940000	174460.737467	1475.801578	349.430388	143239342836.446410	1.843437	4.550251
0.915000	0.235700	0.764300	0.940000	165008.454062	1479.275984	344.561624	143239342836.446410	1.768206	4.590966
0.925000	0.235700	0.764300	0.940000	156037.405322	1482.705723	339.736312	143239342836.446410	1.695832	4.632017
0.935000	0.235700	0.764300	0.940000	147529.814149	1486.089245	334.957338	143239342836.446410	1.626255	4.673383
0.945000	0.235700	0.764300	0.940000	139467.552360	1489.425225	330.227292	143239342836.446410	1.559411	4.715046
0.955000	0.235700	0.764300	0.940000	131832.319311	1492.712552	325.548486	143239342836.446410	1.495232	4.756989
0.965000	0.235700	0.764300	0.940000	124605.796185	1495.950311	320.922969	143239342836.446410	1.433646	4.799193
0.975000	0.235700	0.764300	0.940000	117769.777888	1499.137766	316.352543	143239342836.446410	1.374577	4.841642
0.985000	0.235700	0.764300	0.940000	111306.284531	1502.274349	311.838778	143239342836.446410	1.317947	4.884322
0.995000	0.235700	0.764300	0.940000	105197.654454	1505.359644	307.383024	143239342836.446410	1.263677	4.927216
1.005000	0.235700	0.764300	0.940000	105197.654454	1505.359644	307.383024	143239342836.446410	1.263677	4.927216
1.015000	0.235700	0.764300	0.940000	105197.654454	1505.359644	307.383024	143239342836.446410	1.263677	4.927216
1.025000	0.235700	0.764300	0.940000	105197.654454	1505.359644	307.383024	143239342836.446410	1.263677	4.927216
1.035000	0.235700	0.764300	0.940000	105197.654454	1505.359644	307.383024	143239342836.446410	1.263677	4.927216
1.045000	0.235700	0.764300	0.940000	105197.654454	1505.359644	307.383024	143239342836.446410	1.263677	4.927216
1.055000	0.235700	0.764300	0.940000	105197.654454	1505.359644	307.383024	143239342836.446410	1.263677	4.927216
1.065000	0.235700	0.764300	0.940000	105197.654454	1505.359644	307.383024	143239342836.446410	1.263677	4.927216
1.075000	0.235700	0.764300	0.940000	105197.654454	1505.359644	307.383024	143239342836.446410	1.263677	4.927216
1.085000	0.235700	0.764300	0.940000	105197.654454	1505.359644	307.383024	143239342836.446410	1.263677	4.927216
1.095000	0.235700	0.764300	0.940000	105197.654454	1505.359644	307.383024	143239342836.446410	1.263677	4.927216
1.105000	0.235700	0.764300	0.940000	105197.654454	1505.359644	307.383024	143239342836.446410	1.263677	4.927216
1.115000	0.235700	0.764300	0.940000	105197.654454	1505.359644	307.383024	143239342836.446410	1.263677	4.927216
1.125000	0.235700	0.764300	0.940000	105197.654454	1505.359644	307.383024	143239342836.446410	1.263677	4.927216
1.135000	0.235700	0.764300	0.940000	105197.654454	1505.359644	307.383024	143239342836.446410	1.263677	4.927216
1.145000	0.235700	0.764300	0.940000	105197.654454	1505.359644	307.383024	143239342836.446410	1.263677	4.927216
1.155000	0.235700	0.764300	0.940000	105197.654454	1505.359644	307.383024	143239342836.446410	1.263677	4.927216
1.165000	0.235700	0.764300	0.940000	105197.654454	1505.359644	307.383024	143239342836.446410	1.263677	4.927216
1.175000	0.235700	0.764300	0.940000	105197.654454	1505.359644	307.383024	143239342836.446410	1.263677	4.927216
1.185000	0.235700	0.764300	0.940000	105197.654454	1505.359644	307.383024	143239342836.446410	1.263677	4.927216
1.195000	0.235700	0.764300	0.940000	105197.654454	1505.359644	307.383024	143239342836.446410	1.263677	4.927216
1.205000	0.235700	0.764300	0.940000	105197.654454	1505.359644	307.383024	143239342836.446410	1.263677	4.927216
1.215000	0.235700	0.764300	0.940000	105197.654454	1505.359644	307.383024	143239342836.446410	1.263677	4.927216
1.225000	0.235700	0.764300	0.940000	105197.654454	1505.359644	307.383024	143239342836.446410	1.263677	4.927216
1.235000	0.235700	0.764300	0.940000	105197.654453	1505.359644	307.383024	143239342836.446410	1.263677	4.927216
1.245000	0.235700	0.764300	0.940000	105197.654453	1505.359644	307.383024	143239342836.446410	1.263677	4.927216
1.255000	0.235700	0.764300	0.940000	105197.654452	1505.359644	307.383024	143239342836.446410	1.263677	4.927216
1.265000	0.235700	0.764300	0.940000	105197.654451	1505.359644	307.383024	143239342836.446410	1.263677	4.927216
1.275000	0.235700	0.764300	0.940000	105197.654450	1505.359644	307.383024	143239342836.446410	1.263677	4.927216
1.285000	0.235700	0.764300	0.940000	105197.654447	1505.359644	307.383024	143239342836.446410	1.263677	4.927216
1.295000	0.235700	0.764300	0.940000	105197.654444	1505.359644	307.383024	143239342836.446410	1.263677	4.927216
1.305000	0.235700	0.764300	0.940000	105197.654439	1505.359644	307.383024	143239342836.446410	1.263677	4.927216
1.315000	0.235700	0.764300	0.940000	105197.654431	1505.359644	307.383024	143239342836.446410	1.263677	4.927216
1.325000	0.235700	0.764300	0.940000	105197.654419	1505.359644	307.383024	143239342836.446410	1.263677	4.927216
1.335000	0.235700	0.764300	0.940000	105197.654402	1505.359644	307.383024	143239342836.446410	1.263677	4.927216
1.345000	0.235700	0.764300	0.940000	105197.654377	1505.359644	307.383024	143239342836.446410	1.263677	4.927216
1.355000	0.235700	0.764300	0.940000	105197.654340	1505.359644	307.383024	143239342836.446410	1.263677	4.927216
1.365000	0.235700	0.764300	0.940000	105197.654287	1505.359644	307.383024	143239342836.446410	1.263677	4.927216
1.375000	0.235700	0.764300	0.940000	105197.654209	1505.359644	307.383023	143239342836.446410	1.263677	4.927216
1.385000	0.235700	0.764300	0.940000	105197.654097	1505.359645	307.383023	143239342836.446410	1.263677	4.927216
1.395000	0.235700	0.764300	0.940000	105197.653935	1505.359645	307.383023	143239342836.446410	1.263677	4.927216
1.405000	0.235700	0.764300	0.940000	105197.653705	1505.359645	307.383022	143239342836.446410	1.263677	4.927216
1.415000	0.235700	0.764300	0.940000	105197.653376	1505.359645	307.383021	143239342836.446410	1.263677	4.927216
1.425000	0.235700	0.764300	0.940000	105197.652911	1505.359645	307.383020	143239342836.446410	1.263677	4.927216
1.435000	0.235700	0.764300	0.940000	105197.652256	1505.359646	307.383018	143239342836.446410	1.263677	4.927216
1.445000	0.235700	0.764300	0.940000	105197.651336	1505.359647	307.383016	143239342836.446410	1.263677	4.927216
1.455000	0.235700	0.764300	0.940000	105197.650050	1505.359648	307.383012	143239342836.446410	1.263677	4.927216
1.465000	0.235700	0.764300	0.940000	105197.648263	1505.359649	307.383007	143239342836.446410	1.263677	4.927216
1.475000	0.235700	0.764300	0.940000	105197.645791	1505.359651	307.383001	143239342836.446410	1.263677	4.927216
1.485000	0.235700	0.764300	0.940000	105197.642385	1505.359654	307.382992	143239342836.446410	1.263677	4.927216
1.495000	0.235700	0.764300	0.940000	105197.637716	1505.359658	307.382979	143239342836.446410	1.263677	4.927216
