TITLE = "title"
VARIABLES = "X","yO2v","yN2v","Yv","P","u","T","n_tilde","delta_u","rho_mix","Mach","dp"
ZONE I=300, DATAPACKING=POINT
0.002500	0.235700	0.764300	0.940000	103992.972456	827.330632	301.274406	17904917854.555801	-1.675205	1.274534	2.490078	0.000020
0.007500	0.235700	0.764300	0.940000	105690.351180	825.720920	302.555354	17904917854.555801	-3.322849	1.289851	2.480147	0.000020
0.012500	0.235700	0.764300	0.940000	107417.545904	824.099228	303.842770	17904917854.555801	-4.917641	1.305374	2.470206	0.000020
0.017500	0.235700	0.764300	0.940000	109174.962410	822.465574	305.136578	17904917854.555801	-6.437314	1.321104	2.460258	0.000020
0.022500	0.235700	0.764300	0.940000	110963.001737	820.819981	306.436691	17904917854.555801	-7.863689	1.337042	2.450302	0.000020
0.027500	0.235700	0.764300	0.940000	112782.059326	819.162481	307.743020	17904917854.555801	-9.183263	1.353191	2.440339	0.000020
0.032500	0.235700	0.764300	0.940000	114632.524130	817.493114	309.055468	17904917854.555801	-10.387353	1.369550	2.430370	0.000020
0.037500	0.235700	0.764300	0.940000	116514.777653	815.811928	310.373931	17904917854.555801	-11.471826	1.386123	2.420397	0.000020
0.042500	0.235700	0.764300	0.940000	118429.192939	814.118977	311.698300	17904917854.555801	-12.436564	1.402910	2.410419	0.000020
0.047500	0.235700	0.764300	0.940000	120376.133504	812.414328	313.028458	17904917854.555801	-13.284744	1.419912	2.400437	0.000020
0.052500	0.235700	0.764300	0.940000	122355.952198	810.698055	314.364281	17904917854.555801	-14.022065	1.437131	2.390453	0.000020
0.057500	0.235700	0.764300	0.940000	124368.990015	808.970243	315.705638	17904917854.555801	-14.655987	1.454567	2.380467	0.000020
0.062500	0.235700	0.764300	0.940000	126415.574824	807.230987	317.052390	17904917854.555801	-15.195064	1.472220	2.370480	0.000020
0.067500	0.235700	0.764300	0.940000	128496.020044	805.480392	318.404389	17904917854.555801	-15.648365	1.490093	2.360494	0.000020
0.072500	0.235700	0.764300	0.940000	130610.623239	803.718576	319.761481	17904917854.555801	-16.025033	1.508184	2.350509	0.000020
0.077500	0.235700	0.764300	0.940000	132759.664649	801.945667	321.123502	17904917854.555801	-16.333951	1.526496	2.340527	0.000020
0.082500	0.235700	0.764300	0.940000	134943.405640	800.161808	322.490280	17904917854.555801	-16.583506	1.545026	2.330548	0.000020
0.087500	0.235700	0.764300	0.940000	137162.087079	798.367152	323.861633	17904917854.555801	-16.781449	1.563777	2.320574	0.000020
0.092500	0.235700	0.764300	0.940000	139415.927641	796.561868	325.237371	17904917854.555801	-16.934815	1.582747	2.310606	0.000020
0.097500	0.235700	0.764300	0.940000	141705.122016	794.746136	326.617294	17904917854.555801	-17.049900	1.601937	2.300645	0.000020
0.102500	0.235700	0.764300	0.940000	144029.839059	792.920155	328.001192	17904917854.555801	-17.132264	1.621345	2.290693	0.000020
0.107500	0.235700	0.764300	0.940000	146390.219839	791.084136	329.388844	17904917854.555801	-17.186773	1.640971	2.280750	0.000020
0.112500	0.235700	0.764300	0.940000	148786.375613	789.238308	330.780021	17904917854.555801	-17.217646	1.660814	2.270819	0.000020
0.117500	0.235700	0.764300	0.940000	151218.385717	787.382913	332.174481	17904917854.555801	-17.228511	1.680873	2.260900	0.000020
0.122500	0.235700	0.764300	0.940000	153686.295364	785.518215	333.571971	17904917854.555801	-17.222471	1.701145	2.250996	0.000020
0.127500	0.235700	0.764300	0.940000	156190.113371	783.644494	334.972229	17904917854.555801	-17.202161	1.721630	2.241107	0.000020
0.132500	0.235700	0.764300	0.940000	158729.809786	781.762046	336.374979	17904917854.555801	-17.169809	1.742325	2.231236	0.000020
0.137500	0.235700	0.764300	0.940000	161305.313441	779.871191	337.779935	17904917854.555801	-17.127286	1.763229	2.221384	0.000020
0.142500	0.235700	0.764300	0.940000	163916.509415	777.972265	339.186795	17904917854.555801	-17.076159	1.784337	2.211552	0.000020
0.147500	0.235700	0.764300	0.940000	166563.236424	776.065628	340.595251	17904917854.555801	-17.017735	1.805647	2.201743	0.000020
0.152500	0.235700	0.764300	0.940000	169245.284118	774.151658	342.004975	17904917854.555801	-16.953096	1.827157	2.191959	0.000020
0.157500	0.235700	0.764300	0.940000	171962.390316	772.230758	343.415632	17904917854.555801	-16.883138	1.848862	2.182200	0.000020
0.162500	0.235700	0.764300	0.940000	174714.238150	770.303353	344.826869	17904917854.555801	-16.808596	1.870757	2.172470	0.000020
0.167500	0.235700	0.764300	0.940000	177500.453154	768.369893	346.238323	17904917854.555801	-16.730073	1.892840	2.162771	0.000020
0.172500	0.235700	0.764300	0.940000	180320.600278	766.430849	347.649614	17904917854.555801	-16.648059	1.915104	2.153103	0.000020
0.177500	0.235700	0.764300	0.940000	183174.180844	764.486722	349.060350	17904917854.555801	-16.562952	1.937545	2.143470	0.000020
0.182500	0.235700	0.764300	0.940000	186060.629451	762.538035	350.470123	17904917854.555801	-16.475072	1.960157	2.133874	0.000020
0.187500	0.235700	0.764300	0.940000	188979.310826	760.585340	351.878513	17904917854.555801	-16.384674	1.982933	2.124317	0.000020
0.192500	0.235700	0.764300	0.940000	191929.516650	758.629217	353.285081	17904917854.555801	-16.291959	2.005868	2.114802	0.000020
0.197500	0.235700	0.764300	0.940000	194910.462338	756.670273	354.689375	17904917854.555801	-16.197085	2.028954	2.105331	0.000020
0.202500	0.235700	0.764300	0.940000	197921.283815	754.709143	356.090928	17904917854.555801	-16.100172	2.052182	2.095906	0.000020
0.207500	0.235700	0.764300	0.940000	200961.034281	752.746496	357.489257	17904917854.555801	-16.001312	2.075547	2.086530	0.000020
0.212500	0.235700	0.764300	0.940000	204028.680977	750.783026	358.883864	17904917854.555801	-15.900569	2.099037	2.077206	0.000020
0.217500	0.235700	0.764300	0.940000	207123.101982	748.819463	360.274232	17904917854.555801	-15.797989	2.122645	2.067936	0.000020
0.222500	0.235700	0.764300	0.940000	210243.083038	746.856567	361.659831	17904917854.555801	-15.693601	2.146361	2.058724	0.000020
0.227500	0.235700	0.764300	0.940000	213387.314433	744.895129	363.040115	17904917854.555801	-15.587417	2.170174	2.049572	0.000020
0.232500	0.235700	0.764300	0.940000	216554.387959	742.935975	364.414519	17904917854.555801	-15.479441	2.194073	2.040483	0.000020
0.237500	0.235700	0.764300	0.940000	219742.793958	740.979965	365.782464	17904917854.555801	-15.369664	2.218047	2.031461	0.000020
0.242500	0.235700	0.764300	0.940000	222950.918486	739.027991	367.143354	17904917854.555805	-15.258070	2.242084	2.022509	0.000020
0.247500	0.235700	0.764300	0.940000	226177.040620	737.080981	368.496576	17904917854.555805	-15.144637	2.266170	2.013629	0.000020
0.252500	0.235700	0.764300	0.940000	229419.329922	735.139898	369.841502	17904917854.555801	-15.029337	2.290293	2.004825	0.000020
0.257500	0.235700	0.764300	0.940000	232675.844098	733.205740	371.177486	17904917854.555801	-14.912133	2.314438	1.996102	0.000020
0.262500	0.235700	0.764300	0.940000	235944.526876	731.279540	372.503868	17904917854.555801	-14.792988	2.338590	1.987461	0.000020
0.267500	0.235700	0.764300	0.940000	239223.206136	729.362367	373.819970	17904917854.555801	-14.671860	2.362735	1.978907	0.000020
0.272500	0.235700	0.764300	0.940000	242509.592320	727.455325	375.125100	17904917854.555801	-14.548700	2.386856	1.970443	0.000020
0.277500	0.235700	0.764300	0.940000	245801.277153	725.559555	376.418550	17904917854.555801	-14.423459	2.410937	1.962074	0.000020
0.282500	0.235700	0.764300	0.940000	249095.732724	723.676232	377.699596	17904917854.555801	-14.296083	2.434959	1.953803	0.000020
0.287500	0.235700	0.764300	0.940000	252390.310935	721.806567	378.967501	17904917854.555801	-14.166516	2.458906	1.945633	0.000020
0.292500	0.235700	0.764300	0.940000	255682.243393	719.951805	380.221512	17904917854.555801	-14.034696	2.482757	1.937570	0.000020
0.297500	0.235700	0.764300	0.940000	258968.641740	718.113225	381.460863	17904917854.555801	-13.900562	2.506495	1.929616	0.000020
0.302500	0.235700	0.764300	0.940000	262246.498494	716.292139	382.684777	17904917854.555801	-13.764047	2.530098	1.921777	0.000020
0.307500	0.235700	0.764300	0.940000	265512.688420	714.489894	383.892460	17904917854.555801	-13.625081	2.553546	1.914056	0.000020
0.312500	0.235700	0.764300	0.940000	268763.970478	712.707865	385.083110	17904917854.555801	-13.483592	2.576819	1.906458	0.000020
0.317500	0.235700	0.764300	0.940000	271996.990371	710.947458	386.255913	17904917854.555801	-13.339504	2.599893	1.898987	0.000020
0.322500	0.235700	0.764300	0.940000	275208.283757	709.210110	387.410046	17904917854.555801	-13.192736	2.622747	1.891647	0.000020
0.327500	0.235700	0.764300	0.940000	278394.280129	707.497281	388.544675	17904917854.555801	-13.043206	2.645358	1.884443	0.000020
0.332500	0.235700	0.764300	0.940000	281551.307416	705.810459	389.658959	17904917854.555801	-12.890827	2.667701	1.877380	0.000020
0.337500	0.235700	0.764300	0.940000	284675.597332	704.151155	390.752052	17904917854.555801	-12.735507	2.689754	1.870462	0.000020
0.342500	0.235700	0.764300	0.940000	287763.291491	702.520899	391.823101	17904917854.555801	-12.577152	2.711492	1.863693	0.000020
0.347500	0.235700	0.764300	0.940000	290810.448324	700.921241	392.871248	17904917854.555801	-12.415661	2.732889	1.857078	0.000020
0.352500	0.235700	0.764300	0.940000	293813.050805	699.353744	393.895635	17904917854.555801	-12.250929	2.753921	1.850622	0.000020
0.357500	0.235700	0.764300	0.940000	296767.015007	697.819986	394.895401	17904917854.555801	-12.082848	2.774562	1.844330	0.000020
0.362500	0.235700	0.764300	0.940000	299668.199492	696.321552	395.869687	17904917854.555801	-11.911302	2.794786	1.838206	0.000020
0.367500	0.235700	0.764300	0.940000	302512.415525	694.860034	396.817634	17904917854.555801	-11.736169	2.814568	1.832254	0.000020
0.372500	0.235700	0.764300	0.940000	305295.438128	693.437025	397.738392	17904917854.555801	-11.557323	2.833882	1.826480	0.000020
0.377500	0.235700	0.764300	0.940000	308013.017929	692.054116	398.631112	17904917854.555801	-11.374630	2.852701	1.820888	0.000020
0.382500	0.235700	0.764300	0.940000	310660.893796	690.712892	399.494955	17904917854.555801	-11.187948	2.870999	1.815482	0.000020
0.387500	0.235700	0.764300	0.940000	313234.806225	689.414926	400.329095	17904917854.555801	-10.997128	2.888750	1.810268	0.000020
0.392500	0.235700	0.764300	0.940000	315730.511418	688.161778	401.132715	17904917854.555801	-10.802011	2.905929	1.805249	0.000020
0.397500	0.235700	0.764300	0.940000	318143.796012	686.954984	401.905014	17904917854.555801	-10.602429	2.922510	1.800430	0.000020
0.402500	0.235700	0.764300	0.940000	320470.492386	685.796059	402.645207	17904917854.555801	-10.398204	2.938468	1.795816	0.000020
0.407500	0.235700	0.764300	0.940000	322706.494459	684.686485	403.352531	17904917854.555801	-10.189144	2.953779	1.791410	0.000020
0.412500	0.235700	0.764300	0.940000	324847.773908	683.627710	404.026241	17904917854.555801	-9.975047	2.968417	1.787216	0.000020
0.417500	0.235700	0.764300	0.940000	326890.396684	682.621141	404.665618	17904917854.555801	-9.755694	2.982359	1.783239	0.000020
0.422500	0.235700	0.764300	0.940000	328830.539736	681.668139	405.269971	17904917854.555801	-9.530849	2.995583	1.779482	0.000020
0.427500	0.235700	0.764300	0.940000	330664.507812	680.770012	405.838633	17904917854.555801	-9.300260	3.008067	1.775950	0.000020
0.432500	0.235700	0.764300	0.940000	332388.750214	679.928015	406.370973	17904917854.555801	-9.063651	3.019788	1.772645	0.000020
0.437500	0.235700	0.764300	0.940000	333999.877370	679.143339	406.866391	17904917854.555801	-8.820725	3.030728	1.769571	0.000020
0.442500	0.235700	0.764300	0.940000	335494.677089	678.417109	407.324322	17904917854.555801	-8.571154	3.040867	1.766730	0.000020
0.447500	0.235700	0.764300	0.940000	336870.130350	677.750376	407.744241	17904917854.555801	-8.314583	3.050188	1.764127	0.000020
0.452500	0.235700	0.764300	0.940000	338123.426481	677.144118	408.125659	17904917854.555801	-8.050618	3.058672	1.761763	0.000020
0.457500	0.235700	0.764300	0.940000	339251.977585	676.599231	408.468133	17904917854.555801	-7.778824	3.066306	1.759642	0.000020
0.462500	0.235700	0.764300	0.940000	340253.432072	676.116523	408.771261	17904917854.555801	-7.498719	3.073076	1.757765	0.000020
0.467500	0.235700	0.764300	0.940000	341125.687155	675.696717	409.034686	17904917854.555801	-7.209763	3.078968	1.756134	0.000020
0.472500	0.235700	0.764300	0.940000	341866.900182	675.340441	409.258098	17904917854.555801	-6.911352	3.083973	1.754751	0.000020
0.477500	0.235700	0.764300	0.940000	342475.498690	675.048230	409.441237	17904917854.555801	-6.602804	3.088080	1.753618	0.000020
0.482500	0.235700	0.764300	0.940000	342950.189060	674.820517	409.583889	17904917854.555801	-6.283344	3.091283	1.752735	0.000020
0.487500	0.235700	0.764300	0.940000	343289.963680	674.657639	409.685892	17904917854.555801	-5.952089	3.093574	1.752104	0.000020
0.492500	0.235700	0.764300	0.940000	343494.106551	674.559827	409.747132	17904917854.555801	-5.608024	3.094951	1.751725	0.000020
0.497500	0.235700	0.764300	0.940000	343562.197252	674.527212	409.767550	17904917854.555801	-5.249975	3.095410	1.751599	0.000020
0.502500	0.235700	0.764300	0.940000	343494.113233	674.559821	409.747136	17904917854.555801	-4.876578	3.094951	1.751725	0.000020
0.507500	0.235700	0.764300	0.940000	343290.030404	674.657574	409.685932	17904917854.555801	-4.486229	3.093575	1.752104	0.000020
0.512500	0.235700	0.764300	0.940000	342950.422017	674.820292	409.584030	17904917854.555801	-4.077035	3.091284	1.752734	0.000020
0.517500	0.235700	0.764300	0.940000	342476.055863	675.047690	409.441576	17904917854.555801	-3.646731	3.088083	1.753616	0.000020
0.522500	0.235700	0.764300	0.940000	341867.989790	675.339384	409.258762	17904917854.555801	-3.192592	3.083978	1.754747	0.000020
0.527500	0.235700	0.764300	0.940000	341127.565636	675.694890	409.035832	17904917854.555801	-2.711294	3.078977	1.756127	0.000020
0.532500	0.235700	0.764300	0.940000	340256.401603	676.113628	408.773078	17904917854.555801	-2.198738	3.073089	1.757754	0.000020
0.537500	0.235700	0.764300	0.940000	339256.383198	676.594925	408.470838	17904917854.555801	-1.649796	3.066326	1.759625	0.000020
0.542500	0.235700	0.764300	0.940000	338129.652802	677.138017	408.129496	17904917854.555801	-1.057953	3.058700	1.761740	0.000020
0.547500	0.235700	0.764300	0.940000	336878.598023	677.742052	407.749480	17904917854.555801	-0.414784	3.050225	1.764095	0.000020
0.552500	0.235700	0.764300	0.940000	335505.838918	678.406098	407.331261	17904917854.555801	0.288493	3.040917	1.766687	0.000020
0.557500	0.235700	0.764300	0.940000	334014.214244	679.129143	406.875348	17904917854.555801	1.040453	3.030792	1.769515	0.000020
0.562500	0.235700	0.764300	0.940000	332406.766864	679.910102	406.382291	17904917854.555801	1.822811	3.019868	1.772575	0.000020
0.567500	0.235700	0.764300	0.940000	330686.728451	680.747821	405.852673	17904917854.555801	2.616830	3.008165	1.775863	0.000020
0.572500	0.235700	0.764300	0.940000	328857.503643	681.641084	405.287113	17904917854.555801	3.404872	2.995702	1.779376	0.000020
0.577500	0.235700	0.764300	0.940000	326922.653773	682.588614	404.686262	17904917854.555801	4.171672	2.982501	1.783111	0.000020
0.582500	0.235700	0.764300	0.940000	324885.880345	683.589082	404.050798	17904917854.555801	4.905162	2.968584	1.787063	0.000020
0.587500	0.235700	0.764300	0.940000	322751.008361	684.641110	403.381428	17904917854.555801	5.596790	2.953974	1.791230	0.000020
0.592500	0.235700	0.764300	0.940000	320521.969648	685.743278	402.678884	17904917854.555801	6.241409	2.938695	1.795606	0.000020
0.597500	0.235700	0.764300	0.940000	318202.786310	686.894129	401.943917	17904917854.555801	6.836858	2.922769	1.800188	0.000020
0.602500	0.235700	0.764300	0.940000	315797.554401	688.092173	401.177302	17904917854.555801	7.383369	2.906223	1.804971	0.000020
0.607500	0.235700	0.764300	0.940000	313310.427951	689.335892	400.379828	17904917854.555801	7.882933	2.889081	1.809951	0.000020
0.612500	0.235700	0.764300	0.940000	310745.603409	690.623747	399.552303	17904917854.555801	8.338709	2.871369	1.815124	0.000020
0.617500	0.235700	0.764300	0.940000	308107.304622	691.954181	398.695544	17904917854.555801	8.754520	2.853113	1.820485	0.000020
0.622500	0.235700	0.764300	0.940000	305399.768388	693.325625	397.810381	17904917854.555801	9.134467	2.834337	1.826029	0.000020
0.627500	0.235700	0.764300	0.940000	302627.230676	694.736500	396.897653	17904917854.555801	9.482637	2.815069	1.831752	0.000020
0.632500	0.235700	0.764300	0.940000	299793.913542	696.185226	395.958206	17904917854.555801	9.802924	2.795334	1.837650	0.000020
0.637500	0.235700	0.764300	0.940000	296904.012804	697.670219	394.992889	17904917854.555801	10.098908	2.775157	1.843717	0.000020
0.642500	0.235700	0.764300	0.940000	293961.686488	699.189902	394.002555	17904917854.555801	10.373803	2.754566	1.849949	0.000020
0.647500	0.235700	0.764300	0.940000	290971.044076	700.742704	392.988059	17904917854.555801	10.630440	2.733585	1.856342	0.000020
0.652500	0.235700	0.764300	0.940000	287936.136579	702.327066	391.950254	17904917854.555801	10.871276	2.712240	1.862890	0.000020
0.657500	0.235700	0.764300	0.940000	284860.947422	703.941440	390.889993	17904917854.555801	11.098419	2.690555	1.869590	0.000020
0.662500	0.235700	0.764300	0.940000	281749.384154	705.584299	389.808122	17904917854.555801	11.313664	2.668556	1.876436	0.000020
0.667500	0.235700	0.764300	0.940000	278605.270966	707.254131	388.705486	17904917854.555801	11.518529	2.646267	1.883424	0.000020
0.672500	0.235700	0.764300	0.940000	275432.342013	708.949449	387.582921	17904917854.555801	11.714292	2.623711	1.890549	0.000020
0.677500	0.235700	0.764300	0.940000	272234.235505	710.668789	386.441257	17904917854.555801	11.902028	2.600913	1.897808	0.000020
0.682500	0.235700	0.764300	0.940000	269014.488560	712.410711	385.281314	17904917854.555801	12.082637	2.577894	1.905195	0.000020
0.687500	0.235700	0.764300	0.940000	265776.532782	714.173805	384.103905	17904917854.555801	12.256874	2.554677	1.912706	0.000020
0.692500	0.235700	0.764300	0.940000	262523.690530	715.956689	382.909830	17904917854.555801	12.425376	2.531283	1.920338	0.000020
0.697500	0.235700	0.764300	0.940000	259259.171864	717.758012	381.699879	17904917854.555801	12.588677	2.507735	1.928085	0.000020
0.702500	0.235700	0.764300	0.940000	255986.072104	719.576455	380.474829	17904917854.555801	12.747229	2.484052	1.935943	0.000020
0.707500	0.235700	0.764300	0.940000	252707.369995	721.410729	379.235445	17904917854.555801	12.901416	2.460255	1.943910	0.000020
0.712500	0.235700	0.764300	0.940000	249425.926423	723.259582	377.982478	17904917854.555801	13.051565	2.436362	1.951979	0.000020
0.717500	0.235700	0.764300	0.940000	246144.483650	725.121793	376.716666	17904917854.555801	13.197959	2.412392	1.960148	0.000020
0.722500	0.235700	0.764300	0.940000	242865.665033	726.996176	375.438732	17904917854.555801	13.340841	2.388364	1.968413	0.000020
0.727500	0.235700	0.764300	0.940000	239591.975186	728.881583	374.149384	17904917854.555801	13.480421	2.364294	1.976770	0.000020
0.732500	0.235700	0.764300	0.940000	236325.800551	730.776896	372.849315	17904917854.555801	13.616888	2.340199	1.985215	0.000020
0.737500	0.235700	0.764300	0.940000	233069.410341	732.681036	371.539203	17904917854.555801	13.750403	2.316095	1.993744	0.000020
0.742500	0.235700	0.764300	0.940000	229824.957826	734.592957	370.219710	17904917854.555801	13.881114	2.291998	2.002355	0.000020
0.747500	0.235700	0.764300	0.940000	226594.481913	736.511650	368.891482	17904917854.555801	14.009150	2.267922	2.011043	0.000020
0.752500	0.235700	0.764300	0.940000	223379.909012	738.436140	367.555150	17904917854.555801	14.134631	2.243881	2.019805	0.000020
0.757500	0.235700	0.764300	0.940000	220183.055135	740.365486	366.211326	17904917854.555801	14.257663	2.219888	2.028638	0.000020
0.762500	0.235700	0.764300	0.940000	217005.628205	742.298782	364.860609	17904917854.555801	14.378345	2.195956	2.037540	0.000020
0.767500	0.235700	0.764300	0.940000	213849.230565	744.235156	363.503582	17904917854.555801	14.496766	2.172098	2.046505	0.000020
0.772500	0.235700	0.764300	0.940000	210715.361625	746.173769	362.140809	17904917854.555801	14.613008	2.148325	2.055533	0.000020
0.777500	0.235700	0.764300	0.940000	207605.420662	748.113816	360.772839	17904917854.555801	14.727151	2.124647	2.064619	0.000020
0.782500	0.235700	0.764300	0.940000	204520.709720	750.054523	359.400207	17904917854.555801	14.839264	2.101076	2.073761	0.000020
0.787500	0.235700	0.764300	0.940000	201462.436604	751.995148	358.023431	17904917854.555801	14.949415	2.077620	2.082956	0.000020
0.792500	0.235700	0.764300	0.940000	198431.717949	753.934982	356.643010	17904917854.555801	15.057668	2.054290	2.092202	0.000020
0.797500	0.235700	0.764300	0.940000	195429.582330	755.873343	355.259433	17904917854.555801	15.164081	2.031093	2.101495	0.000020
0.802500	0.235700	0.764300	0.940000	192456.973421	757.809582	353.873170	17904917854.555801	15.268710	2.008038	2.110834	0.000020
0.807500	0.235700	0.764300	0.940000	189514.753163	759.743078	352.484676	17904917854.555801	15.371608	1.985132	2.120215	0.000020
0.812500	0.235700	0.764300	0.940000	186603.704945	761.673238	351.094391	17904917854.555801	15.472825	1.962383	2.129636	0.000020
0.817500	0.235700	0.764300	0.940000	183724.536778	763.599497	349.702741	17904917854.555801	15.572410	1.939796	2.139096	0.000020
0.822500	0.235700	0.764300	0.940000	180877.884447	765.521316	348.310137	17904917854.555801	15.670406	1.917380	2.148591	0.000020
0.827500	0.235700	0.764300	0.940000	178064.314638	767.438185	346.916975	17904917854.555801	15.766858	1.895138	2.158120	0.000020
0.832500	0.235700	0.764300	0.940000	175284.328029	769.349615	345.523639	17904917854.555801	15.861806	1.873077	2.167680	0.000020
0.837500	0.235681	0.764237	0.940078	201811.034642	728.480526	374.398416	17904917854.555801	-19.030616	1.990177	1.975102	0.000020
0.842500	0.234426	0.760168	0.945109	722570.311423	321.393608	566.862449	17904917854.555801	-95.751210	4.701560	0.715522	0.000019
0.847500	0.233146	0.756019	0.950296	923994.623889	241.431136	584.965450	17904917854.555805	-45.409538	5.820830	0.529317	0.000019
0.852500	0.232189	0.752916	0.954213	926372.701835	238.724724	584.336207	17904917854.555805	-19.278197	5.838431	0.523439	0.000018
0.857500	0.231391	0.750328	0.957503	931418.012422	235.187480	584.062707	17904917854.555801	-11.631459	5.869880	0.515624	0.000018
0.862500	0.230675	0.748006	0.960477	936062.985341	231.827714	583.839265	17904917854.555801	-8.586917	5.898602	0.508195	0.000017
0.867500	0.230007	0.745838	0.963268	940514.228317	228.566050	583.641740	17904917854.555801	-7.172327	5.926009	0.500983	0.000017
0.872500	0.229370	0.743774	0.965941	944804.261836	225.386585	583.455103	17904917854.555801	-6.424184	5.952400	0.493954	0.000017
0.877500	0.228759	0.741791	0.968523	948952.935516	222.280104	583.273298	17904917854.555801	-5.972449	5.977935	0.487090	0.000016
0.882500	0.228169	0.739880	0.971025	952971.671298	219.241367	583.094411	17904917854.555801	-5.658684	6.002695	0.480378	0.000016
0.887500	0.227600	0.738036	0.973452	956867.950126	216.267011	582.918525	17904917854.555801	-5.411092	6.026724	0.473812	0.000015
0.892500	0.227052	0.736258	0.975801	960647.291626	213.354610	582.746678	17904917854.555801	-5.196151	6.050046	0.467385	0.000015
0.897500	0.226525	0.734549	0.978073	964314.197225	210.502229	582.580359	17904917854.555801	-4.997924	6.072676	0.461092	0.000014
0.902500	0.226019	0.732908	0.980263	967872.600465	207.708209	582.421270	17904917854.555801	-4.808683	6.094626	0.454930	0.000014
0.907500	0.225535	0.731337	0.982367	971326.084395	204.971064	582.271218	17904917854.555801	-4.624545	6.115901	0.448894	0.000013
0.912500	0.225073	0.729840	0.984383	974677.988684	202.289429	582.132067	17904917854.555801	-4.443412	6.136508	0.442981	0.000013
0.917500	0.224634	0.728418	0.986305	977931.464272	199.662035	582.005726	17904917854.555801	-4.263983	6.156449	0.437187	0.000012
0.922500	0.224220	0.727073	0.988129	981089.503108	197.087696	581.894150	17904917854.555801	-4.085280	6.175726	0.431510	0.000012
0.927500	0.223830	0.725808	0.989851	984154.955588	194.565304	581.799350	17904917854.555801	-3.906404	6.194340	0.425947	0.000011
0.932500	0.223465	0.724627	0.991464	987130.541788	192.093818	581.723412	17904917854.555801	-3.726386	6.212291	0.420494	0.000010
0.937500	0.223128	0.723532	0.992965	990018.859282	189.672273	581.668523	17904917854.555801	-3.544084	6.229575	0.415149	0.000010
0.942500	0.222818	0.722528	0.994345	992822.388769	187.299773	581.637004	17904917854.555801	-3.358050	6.246188	0.409910	0.000009
0.947500	0.222537	0.721617	0.995600	995543.498168	184.975499	581.631359	17904917854.555801	-3.166357	6.262125	0.404774	0.000008
0.952500	0.222287	0.720806	0.996721	998184.445551	182.698715	581.654346	17904917854.555801	-2.966304	6.277376	0.399739	0.000008
0.957500	0.222069	0.720099	0.997698	1000747.381208	180.468784	581.709078	17904917854.555801	-2.753869	6.291928	0.394804	0.000007
0.962500	0.221886	0.719505	0.998523	1003234.349248	178.285186	581.799182	17904917854.555801	-2.522609	6.305766	0.389967	0.000006
0.967500	0.221740	0.719031	0.999180	1005647.288162	176.147556	581.929053	17904917854.555801	-2.261120	6.318865	0.385226	0.000005
0.972500	0.221635	0.718691	0.999654	1007988.013924	174.055745	582.104195	17904917854.555801	-1.946264	6.331193	0.380580	0.000004
0.977500	0.221575	0.718497	0.999923	1010258.005939	172.009864	582.330926	17904917854.555801	-1.522014	6.342710	0.376027	0.000002
0.982500	0.221558	0.718444	0.999998	1012455.171749	170.009729	582.606739	17904917854.555801	-0.863367	6.353420	0.371570	0.000001
0.987500	0.221558	0.718442	1.000000	1014569.795220	168.051479	582.895137	17904917854.555801	-0.106546	6.363538	0.367205	0.000000
0.992500	0.221558	0.718441	1.000001	1016624.032293	166.126307	583.175482	17904917854.555801	-0.089261	6.373356	0.362917	0.000000
0.997500	0.221558	0.718440	1.000002	1018520.348084	164.214052	583.450830	17904917854.555801	-0.088006	6.382230	0.358660	0.000000
1.002500	0.221557	0.718440	1.000003	1023562.630290	162.782109	583.654822	17904917854.555801	-0.076421	6.411583	0.355474	0.000000
1.007500	0.221557	0.718439	1.000004	1023219.710690	162.879163	583.640693	17904917854.555801	0.007181	6.409589	0.355690	0.000000
1.012500	0.221557	0.718438	1.000006	1023243.323476	162.872422	583.641315	17904917854.555801	0.000445	6.409729	0.355675	0.000000
1.017500	0.221557	0.718437	1.000007	1023241.787202	162.872804	583.640924	17904917854.555801	0.000703	6.409722	0.355676	0.000000
1.022500	0.221556	0.718436	1.000008	1023241.976059	162.872698	583.640603	17904917854.555801	0.000529	6.409726	0.355676	0.000000
1.027500	0.221556	0.718436	1.000009	1023242.046616	162.872625	583.640277	17904917854.555801	0.000414	6.409729	0.355676	0.000000
1.032500	0.221556	0.718435	1.000010	1023242.125333	162.872550	583.639951	17904917854.555801	0.000315	6.409732	0.355676	0.000000
1.037500	0.221556	0.718434	1.000011	1023242.203531	162.872475	583.639626	17904917854.555801	0.000228	6.409735	0.355675	0.000000
1.042500	0.221555	0.718433	1.000012	1023242.281784	162.872400	583.639300	17904917854.555801	0.000148	6.409738	0.355675	0.000000
1.047500	0.221555	0.718432	1.000013	1023242.360040	162.872325	583.638975	17904917854.555801	0.000072	6.409741	0.355675	0.000000
1.052500	0.221555	0.718432	1.000014	1023242.438311	162.872250	583.638649	17904917854.555801	-0.000002	6.409744	0.355675	0.000000
1.057500	0.221555	0.718431	1.000015	1023242.516579	162.872175	583.638324	17904917854.555801	-0.000075	6.409747	0.355675	0.000000
1.062500	0.221554	0.718430	1.000017	1023242.594894	162.872100	583.637999	17904917854.555801	-0.000144	6.409750	0.355675	0.000000
1.067500	0.221554	0.718429	1.000018	1023242.673242	162.872025	583.637674	17904917854.555801	-0.000208	6.409753	0.355675	0.000000
1.072500	0.221554	0.718429	1.000019	1023242.751611	162.871950	583.637349	17904917854.555801	-0.000265	6.409756	0.355675	0.000000
1.077500	0.221554	0.718428	1.000020	1023242.829986	162.871875	583.637024	17904917854.555801	-0.000315	6.409758	0.355675	0.000000
1.082500	0.221553	0.718427	1.000021	1023242.908352	162.871800	583.636698	17904917854.555801	-0.000358	6.409761	0.355674	0.000000
1.087500	0.221553	0.718426	1.000022	1023242.986699	162.871725	583.636373	17904917854.555801	-0.000394	6.409764	0.355674	0.000000
1.092500	0.221553	0.718425	1.000023	1023243.065026	162.871650	583.636047	17904917854.555801	-0.000424	6.409767	0.355674	0.000000
1.097500	0.221553	0.718425	1.000024	1023243.143332	162.871575	583.635721	17904917854.555801	-0.000449	6.409770	0.355674	0.000000
1.102500	0.221552	0.718424	1.000025	1023243.221624	162.871500	583.635395	17904917854.555801	-0.000469	6.409773	0.355674	0.000000
1.107500	0.221552	0.718423	1.000026	1023243.299906	162.871425	583.635070	17904917854.555801	-0.000486	6.409776	0.355674	0.000000
1.112500	0.221552	0.718422	1.000028	1023243.378185	162.871350	583.634744	17904917854.555801	-0.000499	6.409779	0.355674	0.000000
1.117500	0.221552	0.718421	1.000029	1023243.456467	162.871275	583.634418	17904917854.555801	-0.000510	6.409782	0.355674	0.000000
1.122500	0.221551	0.718421	1.000030	1023243.534756	162.871200	583.634093	17904917854.555801	-0.000518	6.409785	0.355674	0.000000
1.127500	0.221551	0.718420	1.000031	1023243.613055	162.871125	583.633767	17904917854.555801	-0.000525	6.409788	0.355673	0.000000
1.132500	0.221551	0.718419	1.000032	1023243.691365	162.871050	583.633442	17904917854.555801	-0.000530	6.409791	0.355673	0.000000
1.137500	0.221551	0.718418	1.000033	1023243.769685	162.870975	583.633116	17904917854.555801	-0.000534	6.409794	0.355673	0.000000
1.142500	0.221550	0.718417	1.000034	1023243.848013	162.870900	583.632791	17904917854.555801	-0.000538	6.409797	0.355673	0.000000
1.147500	0.221550	0.718417	1.000035	1023243.926346	162.870825	583.632465	17904917854.555801	-0.000540	6.409800	0.355673	0.000000
1.152500	0.221550	0.718416	1.000036	1023244.004680	162.870750	583.632140	17904917854.555801	-0.000542	6.409803	0.355673	0.000000
1.157500	0.221550	0.718415	1.000037	1023244.083011	162.870675	583.631814	17904917854.555801	-0.000544	6.409806	0.355673	0.000000