TITLE = "title"
VARIABLES = "X","yO2v","yN2v","Yv","P","u","T","n_tilde","delta_u","rho_mix","Mach","dp"
ZONE I=300, DATAPACKING=POINT
0.002500	0.235700	0.764300	0.940000	103992.972456	827.330632	301.274406	17904917854.555801	0.000000	1.274534	2.490078	0.000020
0.007500	0.235700	0.764300	0.940000	105690.351180	825.720920	302.555354	17904917854.555801	0.000000	1.289851	2.480147	0.000020
0.012500	0.235700	0.764300	0.940000	107417.545904	824.099228	303.842770	17904917854.555801	0.000000	1.305374	2.470206	0.000020
0.017500	0.235700	0.764300	0.940000	109174.962410	822.465574	305.136578	17904917854.555801	0.000000	1.321104	2.460258	0.000020
0.022500	0.235700	0.764300	0.940000	110963.001737	820.819981	306.436691	17904917854.555801	0.000000	1.337042	2.450302	0.000020
0.027500	0.235700	0.764300	0.940000	112782.059326	819.162481	307.743020	17904917854.555801	0.000000	1.353191	2.440339	0.000020
0.032500	0.235700	0.764300	0.940000	114632.524130	817.493114	309.055468	17904917854.555801	0.000000	1.369550	2.430371	0.000020
0.037500	0.235700	0.764300	0.940000	116514.777653	815.811928	310.373931	17904917854.555801	0.000000	1.386123	2.420397	0.000020
0.042500	0.235700	0.764300	0.940000	118429.192939	814.118977	311.698300	17904917854.555801	0.000000	1.402910	2.410419	0.000020
0.047500	0.235700	0.764300	0.940000	120376.133504	812.414328	313.028458	17904917854.555801	0.000000	1.419912	2.400437	0.000020
0.052500	0.235700	0.764300	0.940000	122355.952198	810.698055	314.364281	17904917854.555801	0.000000	1.437131	2.390453	0.000020
0.057500	0.235700	0.764300	0.940000	124368.990015	808.970243	315.705638	17904917854.555801	0.000000	1.454567	2.380467	0.000020
0.062500	0.235700	0.764300	0.940000	126415.574824	807.230987	317.052390	17904917854.555801	0.000000	1.472220	2.370480	0.000020
0.067500	0.235700	0.764300	0.940000	128496.020044	805.480392	318.404389	17904917854.555801	0.000000	1.490093	2.360494	0.000020
0.072500	0.235700	0.764300	0.940000	130610.623239	803.718576	319.761481	17904917854.555801	0.000000	1.508184	2.350509	0.000020
0.077500	0.235700	0.764300	0.940000	132759.664649	801.945667	321.123502	17904917854.555801	0.000000	1.526496	2.340527	0.000020
0.082500	0.235700	0.764300	0.940000	134943.405640	800.161808	322.490280	17904917854.555801	0.000000	1.545026	2.330548	0.000020
0.087500	0.235700	0.764300	0.940000	137162.087079	798.367152	323.861633	17904917854.555801	0.000000	1.563777	2.320574	0.000020
0.092500	0.235700	0.764300	0.940000	139415.927641	796.561868	325.237371	17904917854.555801	0.000000	1.582747	2.310606	0.000020
0.097500	0.235700	0.764300	0.940000	141705.122016	794.746136	326.617294	17904917854.555801	0.000000	1.601937	2.300645	0.000020
0.102500	0.235700	0.764300	0.940000	144029.839059	792.920155	328.001192	17904917854.555801	0.000000	1.621345	2.290693	0.000020
0.107500	0.235700	0.764300	0.940000	146390.219839	791.084136	329.388844	17904917854.555801	0.000000	1.640971	2.280750	0.000020
0.112500	0.235700	0.764300	0.940000	148786.375613	789.238308	330.780021	17904917854.555801	0.000000	1.660814	2.270819	0.000020
0.117500	0.235700	0.764300	0.940000	151218.385717	787.382913	332.174481	17904917854.555801	0.000000	1.680873	2.260900	0.000020
0.122500	0.235700	0.764300	0.940000	153686.295364	785.518215	333.571971	17904917854.555801	0.000000	1.701145	2.250996	0.000020
0.127500	0.235700	0.764300	0.940000	156190.113371	783.644494	334.972229	17904917854.555801	0.000000	1.721630	2.241107	0.000020
0.132500	0.235700	0.764300	0.940000	158729.809786	781.762046	336.374979	17904917854.555801	0.000000	1.742325	2.231236	0.000020
0.137500	0.235700	0.764300	0.940000	161305.313441	779.871191	337.779935	17904917854.555801	0.000000	1.763229	2.221384	0.000020
0.142500	0.235700	0.764300	0.940000	163916.509415	777.972265	339.186795	17904917854.555801	0.000000	1.784337	2.211552	0.000020
0.147500	0.235700	0.764300	0.940000	166563.236424	776.065628	340.595251	17904917854.555801	0.000000	1.805647	2.201743	0.000020
0.152500	0.235700	0.764300	0.940000	169245.284118	774.151658	342.004975	17904917854.555801	0.000000	1.827157	2.191959	0.000020
0.157500	0.235700	0.764300	0.940000	171962.390316	772.230758	343.415632	17904917854.555801	0.000000	1.848862	2.182200	0.000020
0.162500	0.235700	0.764300	0.940000	174714.238150	770.303353	344.826869	17904917854.555801	0.000000	1.870757	2.172470	0.000020
0.167500	0.235700	0.764300	0.940000	177500.453154	768.369893	346.238323	17904917854.555801	0.000000	1.892840	2.162771	0.000020
0.172500	0.235700	0.764300	0.940000	180320.600278	766.430849	347.649614	17904917854.555801	0.000000	1.915104	2.153103	0.000020
0.177500	0.235700	0.764300	0.940000	183174.180844	764.486722	349.060350	17904917854.555801	0.000000	1.937545	2.143470	0.000020
0.182500	0.235700	0.764300	0.940000	186060.629451	762.538035	350.470123	17904917854.555801	0.000000	1.960157	2.133874	0.000020
0.187500	0.235700	0.764300	0.940000	188979.310827	760.585340	351.878513	17904917854.555801	0.000000	1.982933	2.124318	0.000020
0.192500	0.235700	0.764300	0.940000	191929.516650	758.629217	353.285081	17904917854.555801	0.000000	2.005868	2.114802	0.000020
0.197500	0.235700	0.764300	0.940000	194910.462338	756.670273	354.689375	17904917854.555801	0.000000	2.028954	2.105331	0.000020
0.202500	0.235700	0.764300	0.940000	197921.283815	754.709143	356.090928	17904917854.555801	0.000000	2.052182	2.095906	0.000020
0.207500	0.235700	0.764300	0.940000	200961.034281	752.746496	357.489257	17904917854.555801	0.000000	2.075547	2.086530	0.000020
0.212500	0.235700	0.764300	0.940000	204028.680977	750.783026	358.883864	17904917854.555801	0.000000	2.099037	2.077206	0.000020
0.217500	0.235700	0.764300	0.940000	207123.101982	748.819463	360.274232	17904917854.555801	0.000000	2.122645	2.067936	0.000020
0.222500	0.235700	0.764300	0.940000	210243.083038	746.856567	361.659831	17904917854.555801	0.000000	2.146361	2.058724	0.000020
0.227500	0.235700	0.764300	0.940000	213387.314433	744.895129	363.040115	17904917854.555801	0.000000	2.170174	2.049572	0.000020
0.232500	0.235700	0.764300	0.940000	216554.387959	742.935975	364.414519	17904917854.555801	0.000000	2.194073	2.040483	0.000020
0.237500	0.235700	0.764300	0.940000	219742.793958	740.979965	365.782464	17904917854.555801	0.000000	2.218047	2.031461	0.000020
0.242500	0.235700	0.764300	0.940000	222950.918486	739.027991	367.143354	17904917854.555801	0.000000	2.242084	2.022509	0.000020
0.247500	0.235700	0.764300	0.940000	226177.040621	737.080981	368.496576	17904917854.555801	0.000000	2.266170	2.013629	0.000020
0.252500	0.235700	0.764300	0.940000	229419.329923	735.139898	369.841502	17904917854.555801	0.000000	2.290293	2.004825	0.000020
0.257500	0.235700	0.764300	0.940000	232675.844098	733.205740	371.177486	17904917854.555801	0.000000	2.314438	1.996102	0.000020
0.262500	0.235700	0.764300	0.940000	235944.526876	731.279540	372.503868	17904917854.555801	0.000000	2.338590	1.987461	0.000020
0.267500	0.235700	0.764300	0.940000	239223.206136	729.362367	373.819970	17904917854.555801	0.000000	2.362735	1.978907	0.000020
0.272500	0.235700	0.764300	0.940000	242509.592320	727.455325	375.125100	17904917854.555801	0.000000	2.386856	1.970443	0.000020
0.277500	0.235700	0.764300	0.940000	245801.277154	725.559555	376.418550	17904917854.555801	0.000000	2.410937	1.962074	0.000020
0.282500	0.235700	0.764300	0.940000	249095.732724	723.676232	377.699596	17904917854.555801	0.000000	2.434959	1.953803	0.000020
0.287500	0.235700	0.764300	0.940000	252390.310935	721.806567	378.967501	17904917854.555801	0.000000	2.458906	1.945633	0.000020
0.292500	0.235700	0.764300	0.940000	255682.243393	719.951805	380.221512	17904917854.555801	0.000000	2.482757	1.937570	0.000020
0.297500	0.235700	0.764300	0.940000	258968.641740	718.113225	381.460863	17904917854.555801	0.000000	2.506495	1.929616	0.000020
0.302500	0.235700	0.764300	0.940000	262246.498494	716.292139	382.684777	17904917854.555801	0.000000	2.530098	1.921777	0.000020
0.307500	0.235700	0.764300	0.940000	265512.688421	714.489894	383.892460	17904917854.555801	0.000000	2.553546	1.914056	0.000020
0.312500	0.235700	0.764300	0.940000	268763.970478	712.707865	385.083110	17904917854.555801	0.000000	2.576819	1.906458	0.000020
0.317500	0.235700	0.764300	0.940000	271996.990371	710.947458	386.255913	17904917854.555801	0.000000	2.599893	1.898987	0.000020
0.322500	0.235700	0.764300	0.940000	275208.283757	709.210110	387.410046	17904917854.555801	0.000000	2.622747	1.891647	0.000020
0.327500	0.235700	0.764300	0.940000	278394.280129	707.497281	388.544675	17904917854.555801	0.000000	2.645358	1.884443	0.000020
0.332500	0.235700	0.764300	0.940000	281551.307417	705.810459	389.658959	17904917854.555801	0.000000	2.667701	1.877380	0.000020
0.337500	0.235700	0.764300	0.940000	284675.597332	704.151155	390.752052	17904917854.555801	0.000000	2.689754	1.870462	0.000020
0.342500	0.235700	0.764300	0.940000	287763.291491	702.520899	391.823101	17904917854.555801	0.000000	2.711492	1.863693	0.000020
0.347500	0.235700	0.764300	0.940000	290810.448324	700.921241	392.871248	17904917854.555801	0.000000	2.732889	1.857078	0.000020
0.352500	0.235700	0.764300	0.940000	293813.050805	699.353744	393.895635	17904917854.555801	0.000000	2.753921	1.850622	0.000020
0.357500	0.235700	0.764300	0.940000	296767.015008	697.819986	394.895401	17904917854.555801	0.000000	2.774562	1.844330	0.000020
0.362500	0.235700	0.764300	0.940000	299668.199492	696.321552	395.869687	17904917854.555801	0.000000	2.794786	1.838206	0.000020
0.367500	0.235700	0.764300	0.940000	302512.415525	694.860034	396.817634	17904917854.555801	0.000000	2.814568	1.832254	0.000020
0.372500	0.235700	0.764300	0.940000	305295.438129	693.437025	397.738392	17904917854.555801	0.000000	2.833882	1.826480	0.000020
0.377500	0.235700	0.764300	0.940000	308013.017929	692.054116	398.631112	17904917854.555801	0.000000	2.852701	1.820888	0.000020
0.382500	0.235700	0.764300	0.940000	310660.893797	690.712892	399.494955	17904917854.555801	0.000000	2.870999	1.815482	0.000020
0.387500	0.235700	0.764300	0.940000	313234.806225	689.414926	400.329095	17904917854.555801	0.000000	2.888750	1.810268	0.000020
0.392500	0.235700	0.764300	0.940000	315730.511418	688.161778	401.132715	17904917854.555801	0.000000	2.905929	1.805249	0.000020
0.397500	0.235700	0.764300	0.940000	318143.796012	686.954984	401.905014	17904917854.555801	0.000000	2.922510	1.800430	0.000020
0.402500	0.235700	0.764300	0.940000	320470.492386	685.796059	402.645207	17904917854.555801	0.000000	2.938468	1.795816	0.000020
0.407500	0.235700	0.764300	0.940000	322706.494460	684.686485	403.352531	17904917854.555801	0.000000	2.953779	1.791410	0.000020
0.412500	0.235700	0.764300	0.940000	324847.773909	683.627710	404.026241	17904917854.555801	0.000000	2.968417	1.787216	0.000020
0.417500	0.235700	0.764300	0.940000	326890.396684	682.621141	404.665618	17904917854.555801	0.000000	2.982359	1.783239	0.000020
0.422500	0.235700	0.764300	0.940000	328830.539736	681.668139	405.269971	17904917854.555801	0.000000	2.995583	1.779482	0.000020
0.427500	0.235700	0.764300	0.940000	330664.507812	680.770012	405.838633	17904917854.555801	0.000000	3.008067	1.775950	0.000020
0.432500	0.235700	0.764300	0.940000	332388.750214	679.928015	406.370973	17904917854.555801	0.000000	3.019788	1.772645	0.000020
0.437500	0.235700	0.764300	0.940000	333999.877370	679.143339	406.866391	17904917854.555801	0.000000	3.030728	1.769571	0.000020
0.442500	0.235700	0.764300	0.940000	335494.677089	678.417109	407.324322	17904917854.555801	0.000000	3.040867	1.766730	0.000020
0.447500	0.235700	0.764300	0.940000	336870.130351	677.750376	407.744241	17904917854.555801	0.000000	3.050188	1.764127	0.000020
0.452500	0.235700	0.764300	0.940000	338123.426482	677.144118	408.125659	17904917854.555801	0.000000	3.058672	1.761764	0.000020
0.457500	0.235700	0.764300	0.940000	339251.977586	676.599231	408.468133	17904917854.555801	0.000000	3.066306	1.759642	0.000020
0.462500	0.235700	0.764300	0.940000	340253.432073	676.116523	408.771261	17904917854.555801	0.000000	3.073076	1.757765	0.000020
0.467500	0.235700	0.764300	0.940000	341125.687155	675.696717	409.034686	17904917854.555801	0.000000	3.078968	1.756134	0.000020
0.472500	0.235700	0.764300	0.940000	341866.900182	675.340441	409.258098	17904917854.555801	0.000000	3.083973	1.754751	0.000020
0.477500	0.235700	0.764300	0.940000	342475.498691	675.048230	409.441237	17904917854.555801	0.000000	3.088080	1.753618	0.000020
0.482500	0.235700	0.764300	0.940000	342950.189060	674.820517	409.583889	17904917854.555801	0.000000	3.091283	1.752735	0.000020
0.487500	0.235700	0.764300	0.940000	343289.963680	674.657639	409.685892	17904917854.555801	0.000000	3.093574	1.752104	0.000020
0.492500	0.235700	0.764300	0.940000	343494.106551	674.559827	409.747132	17904917854.555801	0.000000	3.094951	1.751725	0.000020
0.497500	0.235700	0.764300	0.940000	343562.197253	674.527212	409.767550	17904917854.555801	0.000000	3.095410	1.751599	0.000020
0.502500	0.235700	0.764300	0.940000	343494.113234	674.559821	409.747136	17904917854.555801	0.000000	3.094951	1.751725	0.000020
0.507500	0.235700	0.764300	0.940000	343290.030404	674.657574	409.685932	17904917854.555801	0.000000	3.093575	1.752104	0.000020
0.512500	0.235700	0.764300	0.940000	342950.422018	674.820292	409.584030	17904917854.555801	0.000000	3.091284	1.752734	0.000020
0.517500	0.235700	0.764300	0.940000	342476.055863	675.047690	409.441576	17904917854.555801	0.000000	3.088083	1.753616	0.000020
0.522500	0.235700	0.764300	0.940000	341867.989790	675.339384	409.258762	17904917854.555801	0.000000	3.083978	1.754747	0.000020
0.527500	0.235700	0.764300	0.940000	341127.565636	675.694890	409.035832	17904917854.555801	0.000000	3.078977	1.756127	0.000020
0.532500	0.235700	0.764300	0.940000	340256.401604	676.113628	408.773078	17904917854.555801	0.000000	3.073089	1.757754	0.000020
0.537500	0.235700	0.764300	0.940000	339256.383198	676.594925	408.470838	17904917854.555801	0.000000	3.066326	1.759625	0.000020
0.542500	0.235700	0.764300	0.940000	338129.652802	677.138017	408.129496	17904917854.555801	0.000000	3.058700	1.761740	0.000020
0.547500	0.235700	0.764300	0.940000	336878.598023	677.742052	407.749480	17904917854.555801	0.000000	3.050225	1.764095	0.000020
0.552500	0.235700	0.764300	0.940000	335505.838918	678.406098	407.331261	17904917854.555801	0.000000	3.040917	1.766687	0.000020
0.557500	0.235700	0.764300	0.940000	334014.214244	679.129143	406.875348	17904917854.555801	0.000000	3.030792	1.769515	0.000020
0.562500	0.235700	0.764300	0.940000	332406.766864	679.910102	406.382291	17904917854.555801	0.000000	3.019868	1.772575	0.000020
0.567500	0.235700	0.764300	0.940000	330686.728452	680.747821	405.852673	17904917854.555801	0.000000	3.008165	1.775863	0.000020
0.572500	0.235700	0.764300	0.940000	328857.503643	681.641084	405.287113	17904917854.555801	0.000000	2.995702	1.779376	0.000020
0.577500	0.235700	0.764300	0.940000	326922.653773	682.588614	404.686262	17904917854.555801	0.000000	2.982501	1.783111	0.000020
0.582500	0.235700	0.764300	0.940000	324885.880345	683.589082	404.050798	17904917854.555801	0.000000	2.968584	1.787063	0.000020
0.587500	0.235700	0.764300	0.940000	322751.008361	684.641110	403.381428	17904917854.555801	0.000000	2.953974	1.791230	0.000020
0.592500	0.235700	0.764300	0.940000	320521.969648	685.743278	402.678884	17904917854.555801	0.000000	2.938695	1.795606	0.000020
0.597500	0.235700	0.764300	0.940000	318202.786310	686.894129	401.943917	17904917854.555801	0.000000	2.922769	1.800188	0.000020
0.602500	0.235700	0.764300	0.940000	315797.554401	688.092173	401.177302	17904917854.555801	0.000000	2.906223	1.804971	0.000020
0.607500	0.235700	0.764300	0.940000	313310.427951	689.335892	400.379828	17904917854.555798	0.000000	2.889081	1.809951	0.000020
0.612500	0.235700	0.764300	0.940000	310745.603409	690.623747	399.552303	17904917854.555794	0.000000	2.871369	1.815124	0.000020
0.617500	0.235700	0.764300	0.940000	308107.304622	691.954181	398.695544	17904917854.555790	0.000000	2.853113	1.820485	0.000020
0.622500	0.235700	0.764300	0.940000	305399.768388	693.325625	397.810381	17904917854.555786	0.000000	2.834337	1.826029	0.000020
0.627500	0.235700	0.764300	0.940000	302627.230676	694.736500	396.897653	17904917854.555782	0.000000	2.815069	1.831752	0.000020
0.632500	0.235700	0.764300	0.940000	299793.913542	696.185226	395.958206	17904917854.555779	0.000000	2.795334	1.837650	0.000020
0.637500	0.235700	0.764300	0.940000	296904.012804	697.670219	394.992889	17904917854.555775	0.000000	2.775157	1.843717	0.000020
0.642500	0.235700	0.764300	0.940000	293961.686488	699.189902	394.002555	17904917854.555771	0.000000	2.754566	1.849949	0.000020
0.647500	0.235700	0.764300	0.940000	290971.044076	700.742704	392.988059	17904917854.555767	0.000000	2.733585	1.856342	0.000020
0.652500	0.235700	0.764300	0.940000	287936.136579	702.327066	391.950254	17904917854.555763	0.000000	2.712240	1.862890	0.000020
0.657500	0.235700	0.764300	0.940000	284860.947422	703.941440	390.889993	17904917854.555759	0.000000	2.690555	1.869590	0.000020
0.662500	0.235700	0.764300	0.940000	281749.384154	705.584299	389.808122	17904917854.555756	0.000000	2.668556	1.876436	0.000020
0.667500	0.235700	0.764300	0.940000	278605.270966	707.254131	388.705486	17904917854.555752	0.000000	2.646267	1.883424	0.000020
0.672500	0.235700	0.764300	0.940000	275432.342013	708.949449	387.582921	17904917854.555748	0.000000	2.623711	1.890549	0.000020
0.677500	0.235700	0.764300	0.940000	272234.235505	710.668789	386.441257	17904917854.555744	0.000000	2.600913	1.897808	0.000020
0.682500	0.235700	0.764300	0.940000	269014.488560	712.410711	385.281314	17904917854.555740	0.000000	2.577894	1.905195	0.000020
0.687500	0.235700	0.764300	0.940000	265776.532782	714.173805	384.103905	17904917854.555737	0.000000	2.554677	1.912706	0.000020
0.692500	0.235700	0.764300	0.940000	262523.690530	715.956689	382.909830	17904917854.555733	0.000000	2.531283	1.920338	0.000020
0.697500	0.235700	0.764300	0.940000	259259.171864	717.758012	381.699879	17904917854.555729	0.000000	2.507735	1.928085	0.000020
0.702500	0.235700	0.764300	0.940000	255986.072104	719.576455	380.474829	17904917854.555725	0.000000	2.484052	1.935943	0.000020
0.707500	0.235700	0.764300	0.940000	252707.369995	721.410729	379.235445	17904917854.555721	0.000000	2.460255	1.943910	0.000020
0.712500	0.235700	0.764300	0.940000	249425.926423	723.259582	377.982478	17904917854.555717	0.000000	2.436362	1.951979	0.000020
0.717500	0.235700	0.764300	0.940000	246144.483650	725.121793	376.716666	17904917854.555714	0.000000	2.412392	1.960148	0.000020
0.722500	0.235700	0.764300	0.940000	242865.665033	726.996176	375.438732	17904917854.555710	0.000000	2.388364	1.968413	0.000020
0.727500	0.235700	0.764300	0.940000	239591.975186	728.881583	374.149384	17904917854.555706	0.000000	2.364294	1.976770	0.000020
0.732500	0.235700	0.764300	0.940000	236325.800551	730.776896	372.849315	17904917854.555702	0.000000	2.340199	1.985215	0.000020
0.737500	0.235700	0.764300	0.940000	233069.410341	732.681036	371.539203	17904917854.555698	0.000000	2.316095	1.993744	0.000020
0.742500	0.235700	0.764300	0.940000	229824.957826	734.592957	370.219710	17904917854.555695	0.000000	2.291998	2.002355	0.000020
0.747500	0.235700	0.764300	0.940000	226594.481913	736.511650	368.891482	17904917854.555691	0.000000	2.267922	2.011043	0.000020
0.752500	0.235700	0.764300	0.940000	223379.909012	738.436140	367.555150	17904917854.555687	0.000000	2.243881	2.019805	0.000020
0.757500	0.235700	0.764300	0.940000	220183.055135	740.365486	366.211326	17904917854.555683	0.000000	2.219888	2.028638	0.000020
0.762500	0.235700	0.764300	0.940000	217005.628206	742.298782	364.860609	17904917854.555679	0.000000	2.195956	2.037540	0.000020
0.767500	0.235700	0.764300	0.940000	213849.230565	744.235156	363.503582	17904917854.555676	0.000000	2.172098	2.046505	0.000020
0.772500	0.235700	0.764300	0.940000	210715.361625	746.173769	362.140809	17904917854.555672	0.000000	2.148325	2.055533	0.000020
0.777500	0.235700	0.764300	0.940000	207605.420662	748.113816	360.772839	17904917854.555668	0.000000	2.124647	2.064619	0.000020
0.782500	0.235700	0.764300	0.940000	204520.709720	750.054523	359.400207	17904917854.555664	0.000000	2.101076	2.073761	0.000020
0.787500	0.235700	0.764300	0.940000	201462.436604	751.995148	358.023431	17904917854.555660	0.000000	2.077620	2.082956	0.000020
0.792500	0.235700	0.764300	0.940000	198431.717949	753.934982	356.643010	17904917854.555656	0.000000	2.054290	2.092202	0.000020
0.797500	0.235700	0.764300	0.940000	195429.582330	755.873343	355.259433	17904917854.555653	0.000000	2.031093	2.101495	0.000020
0.802500	0.235700	0.764300	0.940000	192456.973421	757.809582	353.873170	17904917854.555649	0.000000	2.008038	2.110834	0.000020
0.807500	0.235700	0.764300	0.940000	189514.753163	759.743078	352.484676	17904917854.555645	0.000000	1.985132	2.120215	0.000020
0.812500	0.235700	0.764300	0.940000	186603.704945	761.673238	351.094391	17904917854.555641	0.000000	1.962383	2.129636	0.000020
0.817500	0.235700	0.764300	0.940000	183724.536778	763.599497	349.702741	17904917854.555637	0.000000	1.939796	2.139096	0.000020
0.822500	0.235700	0.764300	0.940000	180877.884447	765.521316	348.310137	17904917854.555634	0.000000	1.917380	2.148591	0.000020
0.827500	0.235700	0.764300	0.940000	178064.314638	767.438185	346.916975	17904917854.555630	0.000000	1.895138	2.158120	0.000020
0.832500	0.235700	0.764300	0.940000	175284.328029	769.349615	345.523639	17904917854.555622	0.000000	1.873077	2.167680	0.000020
0.837500	0.235691	0.764272	0.940035	237371.047451	681.516049	405.355075	17877819775.188869	0.000000	2.162073	1.779031	0.000020
0.842500	0.235421	0.763395	0.941115	786672.556036	294.561536	575.331605	17031968805.886127	0.000000	5.046434	0.651492	0.000020
0.847500	0.235106	0.762375	0.942373	925187.052390	241.666515	587.333830	15975887851.020092	0.000000	5.812211	0.529256	0.000020
0.852500	0.234794	0.761363	0.943626	926757.913638	239.397243	587.427235	14991788937.575203	0.000000	5.819982	0.524180	0.000021
0.857500	0.234493	0.760385	0.944840	931320.685210	236.143852	587.731073	14095207665.609318	0.000000	5.844466	0.516867	0.000021
0.862500	0.234201	0.759438	0.946018	935631.036974	232.996379	588.015151	13275322859.918867	0.000000	5.867563	0.509801	0.000021
0.867500	0.233918	0.758520	0.947162	939820.892386	229.909950	588.288702	12523391829.588449	0.000000	5.890011	0.502879	0.000022
0.872500	0.233643	0.757631	0.948274	943890.228106	226.883878	588.551770	11831900716.734995	0.000000	5.911810	0.496100	0.000022
0.877500	0.233377	0.756768	0.949356	947843.906403	223.915925	588.804740	11194374255.805258	0.000000	5.932988	0.489457	0.000022
0.882500	0.233119	0.755929	0.950409	951686.271425	221.004084	589.047964	10605204410.468000	0.000000	5.953569	0.482947	0.000022
0.887500	0.232867	0.755114	0.951435	955421.404384	218.146489	589.281784	10059512084.623743	0.000000	5.973577	0.476564	0.000023
0.892500	0.232623	0.754321	0.952435	959053.142245	215.341402	589.506522	9553034194.418499	0.000000	5.993034	0.470304	0.000023
0.897500	0.232385	0.753550	0.953410	962585.102339	212.587198	589.722493	9082030896.917040	0.000000	6.011959	0.464163	0.000023
0.902500	0.232153	0.752798	0.954362	966020.703401	209.882356	589.929994	8643208928.389284	0.000000	6.030372	0.458137	0.000023
0.907500	0.231927	0.752066	0.955291	969363.183786	207.225444	590.129316	8233657903.826368	0.000000	6.048290	0.452223	0.000023
0.912500	0.231707	0.751352	0.956198	972615.617461	204.615116	590.320736	7850797109.436662	0.000000	6.065731	0.446418	0.000024
0.917500	0.231492	0.750656	0.957086	975780.928008	202.050098	590.504520	7492330839.888945	0.000000	6.082712	0.440717	0.000024
0.922500	0.231283	0.749976	0.957953	978861.900974	199.529187	590.680928	7156210732.533590	0.000000	6.099246	0.435120	0.000024
0.927500	0.231078	0.749313	0.958801	981861.194750	197.051240	590.850207	6840603861.411130	0.000000	6.115350	0.429621	0.000024
0.932500	0.230878	0.748665	0.959631	984781.350249	194.615172	591.012598	6543865596.340672	0.000000	6.131036	0.424220	0.000025
0.937500	0.230683	0.748031	0.960444	987624.799498	192.219947	591.168333	6264516422.972753	0.000000	6.146319	0.418912	0.000025
0.942500	0.230492	0.747412	0.961239	990393.873289	189.864579	591.317635	6001222070.202682	0.000000	6.161210	0.413697	0.000025
0.947500	0.230305	0.746807	0.962018	993090.808069	187.548126	591.460722	5752776411.096613	0.000000	6.175723	0.408571	0.000025
0.952500	0.230123	0.746215	0.962782	995717.752073	185.269684	591.597802	5518086699.304992	0.000000	6.189868	0.403532	0.000025
0.957500	0.229944	0.745635	0.963530	998276.770918	183.028387	591.729078	5296160779.709592	0.000000	6.203656	0.398579	0.000025
0.962500	0.229769	0.745068	0.964264	1000769.852582	180.823405	591.854747	5086095974.255542	0.000000	6.217099	0.393709	0.000026
0.967500	0.229598	0.744513	0.964983	1003198.911961	178.653937	591.974997	4887069394.270165	0.000000	6.230207	0.388920	0.000026
0.972500	0.229430	0.743969	0.965688	1005565.795001	176.519216	592.090012	4698329471.708626	0.000000	6.242989	0.384210	0.000026
0.977500	0.229266	0.743436	0.966381	1007872.282342	174.418498	592.199971	4519188535.352275	0.000000	6.255455	0.379578	0.000026
0.982500	0.229105	0.742914	0.967060	1010120.096715	172.351069	592.305044	4349016285.848668	0.000000	6.267614	0.375022	0.000026
0.987500	0.228947	0.742402	0.967726	1012310.781199	170.316221	592.405402	4187234039.364172	0.000000	6.279475	0.370540	0.000026
0.992500	0.228792	0.741901	0.968381	1014449.580647	168.313798	592.501131	4033309849.832755	0.000000	6.291068	0.366132	0.000027
0.997500	0.228641	0.741409	0.969023	1016427.240055	166.327475	592.594631	3886749756.846699	0.000000	6.301692	0.361761	0.000027
1.002500	0.228493	0.740928	0.969651	1021562.037475	164.827225	592.619555	3747993815.831807	0.000000	6.332621	0.358468	0.000027
1.007500	0.228349	0.740462	0.970261	1021264.365522	164.883413	592.425620	3618412234.188614	0.000000	6.332235	0.358623	0.000027
1.012500	0.228209	0.740010	0.970854	1021332.237218	164.836059	592.251976	3497368375.332008	0.000000	6.333916	0.358548	0.000027
1.017500	0.228074	0.739572	0.971430	1021373.781221	164.797013	592.082263	3384044213.117514	0.000000	6.335410	0.358490	0.000027
1.022500	0.227943	0.739146	0.971989	1021415.773772	164.758586	591.917314	3277732158.487655	0.000000	6.336872	0.358433	0.000027
1.027500	0.227815	0.738732	0.972534	1021456.464210	164.721241	591.756814	3177806896.659865	0.000000	6.338296	0.358378	0.000027
1.032500	0.227691	0.738330	0.973064	1021496.039184	164.684888	591.600547	3083714887.630332	0.000000	6.339682	0.358324	0.000028
1.037500	0.227570	0.737938	0.973580	1021534.547895	164.649482	591.448306	2994964340.082398	0.000000	6.341033	0.358272	0.000028
1.042500	0.227453	0.737557	0.974084	1021572.044045	164.614976	591.299902	2911116882.138496	0.000000	6.342350	0.358221	0.000028
1.047500	0.227338	0.737185	0.974575	1021608.576665	164.581329	591.155158	2831780535.098972	0.000000	6.343635	0.358171	0.000028
1.052500	0.227226	0.736823	0.975054	1021644.191180	164.548502	591.013911	2756603763.706664	0.000000	6.344890	0.358122	0.000028
1.057500	0.227118	0.736470	0.975521	1021678.929724	164.516458	590.876009	2685270415.626850	0.000000	6.346116	0.358075	0.000028
1.062500	0.227011	0.736125	0.975978	1021712.831456	164.485164	590.741309	2617495399.372412	0.000000	6.347313	0.358029	0.000028
1.067500	0.226907	0.735788	0.976425	1021745.932834	164.454588	590.609679	2553020978.331745	0.000000	6.348484	0.357983	0.000028
1.072500	0.226806	0.735460	0.976861	1021778.267867	164.424701	590.480994	2491613581.126446	0.000000	6.349629	0.357939	0.000028
1.077500	0.226707	0.735139	0.977288	1021809.868328	164.395475	590.355137	2433061046.526893	0.000000	6.350749	0.357896	0.000028
1.082500	0.226610	0.734825	0.977705	1021840.763947	164.366883	590.232000	2377170235.589224	0.000000	6.351845	0.357854	0.000028
1.087500	0.226516	0.734518	0.978114	1021870.982591	164.338903	590.111479	2323764955.314282	0.000000	6.352918	0.357812	0.000028
1.092500	0.226423	0.734217	0.978514	1021900.550414	164.311511	589.993479	2272684147.556161	0.000000	6.353970	0.357772	0.000028
1.097500	0.226332	0.733924	0.978906	1021929.491994	164.284685	589.877907	2223780304.580979	0.000000	6.355000	0.357732	0.000028
1.102500	0.226244	0.733636	0.979289	1021957.830466	164.258405	589.764678	2176918078.950256	0.000000	6.356009	0.357693	0.000028
1.107500	0.226157	0.733354	0.979666	1021985.587627	164.232653	589.653710	2131973060.554838	0.000000	6.356999	0.357655	0.000028
1.112500	0.226072	0.733078	0.980034	1022012.784043	164.207410	589.544927	2088830697.873363	0.000000	6.357969	0.357618	0.000028
1.117500	0.225988	0.732808	0.980396	1022039.439138	164.182658	589.438256	2047385344.045821	0.000000	6.358921	0.357582	0.000028
1.122500	0.225907	0.732543	0.980751	1022065.571281	164.158382	589.333629	2007539411.275087	0.000000	6.359855	0.357546	0.000028
1.127500	0.225826	0.732283	0.981098	1022091.197858	164.134567	589.230979	1969202619.506896	0.000000	6.360772	0.357511	0.000028
1.132500	0.225748	0.732029	0.981440	1022116.335346	164.111197	589.130244	1932291327.378813	0.000000	6.361672	0.357476	0.000028
1.137500	0.225671	0.731779	0.981775	1022140.999372	164.088259	589.031367	1896727935.142197	0.000000	6.362555	0.357442	0.000028
1.142500	0.225595	0.731534	0.982104	1022165.204775	164.065740	588.934290	1862440350.704863	0.000000	6.363423	0.357409	0.000028
1.147500	0.225521	0.731293	0.982427	1022188.965655	164.043627	588.838961	1829361511.162496	0.000000	6.364275	0.357376	0.000028
1.152500	0.225448	0.731057	0.982744	1022212.295425	164.021908	588.745327	1797428953.221478	0.000000	6.365113	0.357344	0.000028
1.157500	0.225377	0.730825	0.983056	1022235.206852	164.000572	588.653342	1766584426.795437	0.000000	6.365935	0.357313	0.000028
1.162500	0.225307	0.730598	0.983362	1022257.712101	163.979609	588.562958	1736773546.808044	0.000000	6.366744	0.357282	0.000028
1.167500	0.225238	0.730374	0.983663	1022279.822772	163.959007	588.474132	1707945478.875911	0.000000	6.367539	0.357251	0.000028
1.172500	0.225170	0.730155	0.983959	1022301.549933	163.938756	588.386821	1680052655.095364	0.000000	6.368321	0.357221	0.000028