TITLE = "title"
VARIABLES = "X","rhoN2","rhoO2","rhoNO","rhoN","rhoO","u","T","Tv","P","M","YN2","YO2","YNO","YN","YO"
ZONE I=200, DATAPACKING=POINT
0.003750	0.000242	0.000075	-0.000000	-0.000000	0.000000	3499.483114	345.699419	298.150001	31.551203	9.416015	0.764300	0.235700	-0.000000	-0.000000	0.000000
0.011250	0.000250	0.000077	-0.000000	-0.000000	0.000000	3498.252504	349.869105	298.150002	32.915537	9.356446	0.764300	0.235700	-0.000000	-0.000000	0.000000
0.018750	0.000257	0.000079	-0.000000	-0.000000	0.000000	3497.007026	354.087676	298.150003	34.338396	9.297232	0.764300	0.235700	-0.000000	-0.000000	0.000000
0.026250	0.000265	0.000082	-0.000000	-0.000000	0.000000	3495.746823	358.354590	298.150004	35.821887	9.238385	0.764300	0.235700	-0.000000	-0.000000	0.000000
0.033750	0.000273	0.000084	-0.000000	-0.000000	0.000000	3494.472068	362.669212	298.150005	37.368143	9.179918	0.764300	0.235700	-0.000000	-0.000000	0.000000
0.041250	0.000282	0.000087	-0.000000	-0.000000	0.000000	3493.182963	367.030805	298.150007	38.979307	9.121844	0.764300	0.235700	-0.000000	-0.000000	0.000000
0.048750	0.000290	0.000090	-0.000000	-0.000000	0.000000	3491.879742	371.438523	298.150009	40.657532	9.064177	0.764300	0.235700	-0.000000	-0.000000	0.000000
0.056250	0.000299	0.000092	-0.000000	-0.000000	0.000000	3490.562673	375.891406	298.150012	42.404967	9.006931	0.764300	0.235700	-0.000000	-0.000000	0.000000
0.063750	0.000308	0.000095	-0.000000	-0.000000	0.000000	3489.232059	380.388375	298.150014	44.223749	8.950119	0.764300	0.235700	-0.000000	-0.000000	0.000000
0.071250	0.000318	0.000098	-0.000000	-0.000000	0.000000	3487.888243	384.928223	298.150018	46.115992	8.893757	0.764300	0.235700	-0.000000	-0.000000	0.000000
0.078750	0.000328	0.000101	-0.000000	-0.000000	0.000000	3486.531606	389.509612	298.150022	48.083775	8.837859	0.764300	0.235700	-0.000000	-0.000000	0.000000
0.086250	0.000337	0.000104	-0.000000	-0.000000	0.000000	3485.162570	394.131064	298.150026	50.129126	8.782442	0.764300	0.235700	-0.000000	-0.000000	0.000000
0.093750	0.000348	0.000107	-0.000000	-0.000000	0.000000	3483.781603	398.790954	298.150032	52.254009	8.727520	0.764300	0.235700	-0.000000	-0.000000	0.000000
0.101250	0.000358	0.000110	-0.000000	-0.000000	0.000000	3482.389217	403.487507	298.150038	54.460306	8.673110	0.764300	0.235700	-0.000000	-0.000000	0.000000
0.108750	0.000369	0.000114	-0.000000	-0.000000	0.000000	3480.985972	408.218787	298.150045	56.749802	8.619228	0.764300	0.235700	-0.000000	-0.000000	0.000000
0.116250	0.000380	0.000117	-0.000000	-0.000000	0.000000	3479.572478	412.982694	298.150053	59.124162	8.565891	0.764300	0.235700	-0.000000	-0.000000	0.000000
0.123750	0.000391	0.000121	-0.000000	-0.000000	0.000000	3478.149398	417.776957	298.150063	61.584912	8.513116	0.764300	0.235700	-0.000000	-0.000000	0.000000
0.131250	0.000403	0.000124	-0.000000	0.000000	0.000000	3476.717447	422.599126	298.150073	64.133416	8.460922	0.764300	0.235700	-0.000000	0.000000	0.000000
0.138750	0.000414	0.000128	-0.000000	0.000000	0.000000	3475.277396	427.446568	298.150086	66.770853	8.409325	0.764300	0.235700	-0.000000	0.000000	0.000000
0.146250	0.000426	0.000132	-0.000000	0.000000	0.000000	3473.830074	432.316461	298.150100	69.498189	8.358344	0.764300	0.235700	-0.000000	0.000000	0.000000
0.153750	0.000439	0.000135	-0.000000	0.000000	0.000000	3472.376370	437.205789	298.150116	72.316154	8.307999	0.764300	0.235700	-0.000000	0.000000	0.000000
0.161250	0.000451	0.000139	-0.000000	0.000000	0.000000	3470.917232	442.111335	298.150134	75.225207	8.258307	0.764300	0.235700	-0.000000	0.000000	0.000000
0.168750	0.000464	0.000143	-0.000000	0.000000	0.000000	3469.453670	447.029680	298.150154	78.225516	8.209288	0.764300	0.235700	-0.000000	0.000000	0.000000
0.176250	0.000477	0.000147	-0.000000	0.000000	0.000000	3467.986761	451.957196	298.150177	81.316920	8.160962	0.764300	0.235700	-0.000000	0.000000	0.000000
0.183750	0.000491	0.000151	-0.000000	0.000000	0.000000	3466.517641	456.890045	298.150203	84.498897	8.113349	0.764300	0.235700	-0.000000	0.000000	0.000000
0.191250	0.000504	0.000155	-0.000000	0.000000	0.000000	3465.047518	461.824175	298.150232	87.770539	8.066468	0.764300	0.235700	-0.000000	0.000000	0.000000
0.198750	0.000518	0.000160	-0.000000	0.000000	0.000000	3463.577660	466.755320	298.150265	91.130511	8.020342	0.764300	0.235700	-0.000000	0.000000	0.000000
0.206250	0.000532	0.000164	-0.000000	-0.000000	0.000000	3462.109405	471.678998	298.150301	94.577024	7.974989	0.764300	0.235700	-0.000000	-0.000000	0.000000
0.213750	0.000546	0.000168	-0.000000	-0.000000	0.000000	3460.644158	476.590509	298.150342	98.107797	7.930432	0.764300	0.235700	-0.000000	-0.000000	0.000000
0.221250	0.000560	0.000173	-0.000000	-0.000000	0.000000	3459.183389	481.484943	298.150387	101.720031	7.886691	0.764300	0.235700	-0.000000	-0.000000	0.000000
0.228750	0.000575	0.000177	-0.000000	0.000000	0.000000	3457.728632	486.357174	298.150437	105.410374	7.843787	0.764300	0.235700	-0.000000	0.000000	0.000000
0.236250	0.000590	0.000182	-0.000000	0.000000	0.000000	3456.281490	491.201871	298.150492	109.174890	7.801744	0.764300	0.235700	-0.000000	0.000000	0.000000
0.243750	0.000604	0.000186	-0.000000	0.000000	0.000000	3454.843626	496.013498	298.150553	113.009037	7.760581	0.764300	0.235700	-0.000000	0.000000	0.000000
0.251250	0.000619	0.000191	-0.000000	0.000000	0.000000	3453.416766	500.786325	298.150619	116.907636	7.720321	0.764300	0.235700	-0.000000	0.000000	0.000000
0.258750	0.000634	0.000196	-0.000000	0.000000	0.000000	3452.002694	505.514430	298.150693	120.864855	7.680985	0.764300	0.235700	-0.000000	0.000000	0.000000
0.266250	0.000649	0.000200	-0.000000	0.000000	0.000000	3450.603251	510.191715	298.150772	124.874186	7.642596	0.764300	0.235700	-0.000000	0.000000	0.000000
0.273750	0.000664	0.000205	-0.000000	0.000000	0.000000	3449.220330	514.811914	298.150860	128.928437	7.605175	0.764300	0.235700	-0.000000	0.000000	0.000000
0.281250	0.000679	0.000210	-0.000000	0.000000	0.000000	3447.855876	519.368605	298.150954	133.019716	7.568744	0.764300	0.235700	-0.000000	0.000000	0.000000
0.288750	0.000695	0.000214	-0.000000	0.000000	0.000000	3446.511875	523.855228	298.151057	137.139440	7.533325	0.764300	0.235700	-0.000000	0.000000	0.000000
0.296250	0.000710	0.000219	-0.000000	0.000000	0.000000	3445.190355	528.265097	298.151168	141.278327	7.498939	0.764300	0.235700	-0.000000	0.000000	0.000000
0.303750	0.000724	0.000223	-0.000000	0.000000	0.000000	3443.893379	532.591422	298.151287	145.426415	7.465608	0.764300	0.235700	-0.000000	0.000000	0.000000
0.311250	0.000739	0.000228	-0.000000	0.000000	0.000000	3442.623035	536.827328	298.151415	149.573081	7.433353	0.764300	0.235700	-0.000000	0.000000	0.000000
0.318750	0.000754	0.000232	-0.000000	0.000000	0.000000	3441.381437	540.965874	298.151552	153.707061	7.402194	0.764300	0.235700	-0.000000	0.000000	0.000000
0.326250	0.000768	0.000237	-0.000000	0.000000	0.000000	3440.170711	545.000079	298.151699	157.816492	7.372152	0.764300	0.235700	-0.000000	0.000000	0.000000
0.333750	0.000782	0.000241	-0.000000	0.000000	0.000000	3438.992991	548.922946	298.151855	161.888955	7.343248	0.764300	0.235700	-0.000000	0.000000	0.000000
0.341250	0.000796	0.000246	-0.000000	0.000000	0.000000	3437.850408	552.727488	298.152020	165.911526	7.315500	0.764300	0.235700	-0.000000	0.000000	0.000000
0.348750	0.000810	0.000250	-0.000000	0.000000	0.000000	3436.745087	556.406755	298.152195	169.870840	7.288929	0.764300	0.235700	-0.000000	0.000000	0.000000
0.356250	0.000823	0.000254	-0.000000	0.000000	0.000000	3435.679133	559.953864	298.152380	173.753162	7.263552	0.764300	0.235700	-0.000000	0.000000	0.000000
0.363750	0.000836	0.000258	-0.000000	0.000000	0.000000	3434.654622	563.362025	298.152574	177.544466	7.239388	0.764300	0.235700	-0.000000	0.000000	0.000000
0.371250	0.000849	0.000262	-0.000000	0.000000	0.000000	3433.673596	566.624578	298.152778	181.230525	7.216455	0.764300	0.235700	-0.000000	0.000000	0.000000
0.378750	0.000861	0.000265	-0.000000	0.000000	0.000000	3432.738048	569.735017	298.152991	184.797006	7.194768	0.764300	0.235700	-0.000000	0.000000	0.000000
0.386250	0.000872	0.000269	-0.000000	0.000000	0.000000	3431.849917	572.687028	298.153214	188.229574	7.174344	0.764300	0.235700	-0.000000	0.000000	0.000000
0.393750	0.000883	0.000272	-0.000000	0.000000	0.000000	3431.011072	575.474513	298.153445	191.513998	7.155198	0.764300	0.235700	-0.000000	0.000000	0.000000
0.401250	0.000893	0.000275	-0.000000	0.000000	-0.000000	3430.223311	578.091629	298.153684	194.636267	7.137344	0.764300	0.235700	-0.000000	0.000000	-0.000000
0.408750	0.000903	0.000278	-0.000000	-0.000000	-0.000000	3429.488343	580.532814	298.153932	197.582703	7.120796	0.764300	0.235700	-0.000000	-0.000000	-0.000000
0.416250	0.000912	0.000281	-0.000000	-0.000000	-0.000000	3428.807783	582.792816	298.154187	200.340084	7.105565	0.764300	0.235700	-0.000000	-0.000000	-0.000000
0.423750	0.000920	0.000284	-0.000000	0.000000	-0.000000	3428.183143	584.866728	298.154449	202.895761	7.091664	0.764300	0.235700	-0.000000	0.000000	-0.000000
0.431250	0.000928	0.000286	-0.000000	0.000000	0.000000	3427.615820	586.750007	298.154718	205.237774	7.079102	0.764300	0.235700	-0.000000	0.000000	0.000000
0.438750	0.000935	0.000288	-0.000000	-0.000000	0.000000	3427.107093	588.438510	298.154992	207.354967	7.067889	0.764300	0.235700	-0.000000	-0.000000	0.000000
0.446250	0.000941	0.000290	-0.000000	0.000000	0.000000	3426.658110	589.928509	298.155272	209.237098	7.058033	0.764300	0.235700	-0.000000	0.000000	0.000000
0.453750	0.000946	0.000292	-0.000000	-0.000000	-0.000000	3426.269886	591.216717	298.155557	210.874939	7.049540	0.764300	0.235700	-0.000000	-0.000000	-0.000000
0.461250	0.000951	0.000293	-0.000000	-0.000000	-0.000000	3425.943293	592.300308	298.155845	212.260373	7.042417	0.764300	0.235700	-0.000000	-0.000000	-0.000000
0.468750	0.000954	0.000294	0.000000	0.000000	-0.000000	3425.679057	593.176934	298.156136	213.386477	7.036669	0.764300	0.235700	0.000000	0.000000	-0.000000
0.476250	0.000957	0.000295	0.000000	0.000000	-0.000000	3425.477752	593.844735	298.156430	214.247594	7.032298	0.764300	0.235700	0.000000	0.000000	-0.000000
0.483750	0.000959	0.000296	0.000000	0.000000	-0.000000	3425.339799	594.302355	298.156725	214.839394	7.029307	0.764300	0.235700	0.000000	0.000000	-0.000000
0.491250	0.000960	0.000296	-0.000000	0.000000	0.000000	3425.265460	594.548947	298.157021	215.158918	7.027697	0.764300	0.235700	-0.000000	0.000000	0.000000
0.498750	0.000960	0.000296	-0.000000	0.000000	0.000000	3425.254841	594.584179	298.157317	215.204611	7.027467	0.764300	0.235700	-0.000000	0.000000	0.000000
0.506250	0.000960	0.000296	-0.000000	0.000000	0.000000	3425.307886	594.408233	298.157612	214.976339	7.028615	0.764300	0.235700	-0.000000	0.000000	0.000000
0.513750	0.000958	0.000295	-0.000000	0.000000	-0.000000	3425.424382	594.021806	298.157906	214.475387	7.031140	0.764300	0.235700	-0.000000	0.000000	-0.000000
0.521250	0.000955	0.000295	-0.000000	0.000000	-0.000000	3425.603959	593.426105	298.158197	213.704447	7.035037	0.764300	0.235700	-0.000000	0.000000	-0.000000
0.528750	0.000952	0.000294	-0.000000	0.000000	-0.000000	3425.846094	592.622834	298.158485	212.667586	7.040301	0.764300	0.235700	-0.000000	0.000000	-0.000000
0.536250	0.000948	0.000292	-0.000000	0.000000	-0.000000	3426.150111	591.614190	298.158770	211.370203	7.046925	0.764300	0.235700	-0.000000	0.000000	-0.000000
0.543750	0.000943	0.000291	-0.000000	0.000000	-0.000000	3426.515190	590.402841	298.159050	209.818970	7.054903	0.764300	0.235700	-0.000000	0.000000	-0.000000
0.551250	0.000937	0.000289	0.000000	0.000000	-0.000000	3426.940369	588.991914	298.159324	208.021758	7.064224	0.764300	0.235700	0.000000	0.000000	-0.000000
0.558750	0.000930	0.000287	-0.000000	0.000000	-0.000000	3427.424550	587.384975	298.159593	205.987559	7.074880	0.764300	0.235700	-0.000000	0.000000	-0.000000
0.566250	0.000923	0.000285	-0.000000	0.000000	-0.000000	3427.966511	585.586005	298.159856	203.726391	7.086859	0.764300	0.235700	-0.000000	0.000000	-0.000000
0.573750	0.000915	0.000282	0.000000	0.000000	-0.000000	3428.564906	583.599376	298.160111	201.249194	7.100150	0.764300	0.235700	0.000000	0.000000	-0.000000
0.581250	0.000906	0.000279	-0.000000	0.000000	-0.000000	3429.218280	581.429827	298.160359	198.567729	7.114740	0.764300	0.235700	-0.000000	0.000000	-0.000000
0.588750	0.000897	0.000276	-0.000000	0.000000	-0.000000	3429.925071	579.082435	298.160599	195.694456	7.130615	0.764300	0.235700	-0.000000	0.000000	-0.000000
0.596250	0.000886	0.000273	-0.000000	0.000000	-0.000000	3430.683626	576.562587	298.160830	192.642425	7.147761	0.764300	0.235700	-0.000000	0.000000	-0.000000
0.603750	0.000876	0.000270	-0.000000	0.000000	-0.000000	3431.492205	573.875951	298.161053	189.425154	7.166161	0.764300	0.235700	-0.000000	0.000000	-0.000000
0.611250	0.000864	0.000267	-0.000000	0.000000	-0.000000	3432.348992	571.028444	298.161267	186.056513	7.185800	0.764300	0.235700	-0.000000	0.000000	-0.000000
0.618750	0.000853	0.000263	-0.000000	0.000000	-0.000000	3433.252106	568.026201	298.161472	182.550608	7.206661	0.764300	0.235700	-0.000000	0.000000	-0.000000
0.626250	0.000840	0.000259	-0.000000	0.000000	-0.000000	3434.199608	564.875549	298.161668	178.921668	7.228725	0.764300	0.235700	-0.000000	0.000000	-0.000000
0.633750	0.000828	0.000255	-0.000000	-0.000000	-0.000000	3435.189513	561.582968	298.161854	175.183935	7.251975	0.764300	0.235700	-0.000000	-0.000000	-0.000000
0.641250	0.000814	0.000251	-0.000000	-0.000000	-0.000000	3436.219798	558.155069	298.162030	171.351565	7.276392	0.764300	0.235700	-0.000000	-0.000000	-0.000000
0.648750	0.000801	0.000247	-0.000000	-0.000000	-0.000000	3437.288412	554.598559	298.162197	167.438528	7.301955	0.764300	0.235700	-0.000000	-0.000000	-0.000000
0.656250	0.000787	0.000243	-0.000000	0.000000	-0.000000	3438.393283	550.920214	298.162355	163.458525	7.328646	0.764300	0.235700	-0.000000	0.000000	-0.000000
0.663750	0.000773	0.000238	-0.000000	0.000000	-0.000000	3439.532331	547.126850	298.162503	159.424900	7.356444	0.764300	0.235700	-0.000000	0.000000	-0.000000
0.671250	0.000759	0.000234	-0.000000	0.000000	-0.000000	3440.703471	543.225300	298.162643	155.350577	7.385329	0.764300	0.235700	-0.000000	0.000000	-0.000000
0.678750	0.000744	0.000229	-0.000000	0.000000	-0.000000	3441.904625	539.222382	298.162773	151.247990	7.415278	0.764300	0.235700	-0.000000	0.000000	-0.000000
0.686250	0.000729	0.000225	-0.000000	0.000000	-0.000000	3443.133726	535.124882	298.162894	147.129034	7.446272	0.764300	0.235700	-0.000000	0.000000	-0.000000
0.693750	0.000715	0.000220	-0.000000	0.000000	-0.000000	3444.388727	530.939526	298.163007	143.005016	7.478288	0.764300	0.235700	-0.000000	0.000000	-0.000000
0.701250	0.000700	0.000216	-0.000000	0.000000	-0.000000	3445.667609	526.672963	298.163112	138.886624	7.511306	0.764300	0.235700	-0.000000	0.000000	-0.000000
0.708750	0.000685	0.000211	-0.000000	0.000000	-0.000000	3446.968381	522.331744	298.163209	134.783893	7.545303	0.764300	0.235700	-0.000000	0.000000	-0.000000
0.716250	0.000670	0.000206	-0.000000	0.000000	-0.000000	3448.289092	517.922305	298.163298	130.706189	7.580257	0.764300	0.235700	-0.000000	0.000000	-0.000000
0.723750	0.000654	0.000202	-0.000000	0.000000	-0.000000	3449.627831	513.450949	298.163381	126.662196	7.616147	0.764300	0.235700	-0.000000	0.000000	-0.000000
0.731250	0.000639	0.000197	-0.000000	0.000000	-0.000000	3450.982736	508.923835	298.163456	122.659910	7.652952	0.764300	0.235700	-0.000000	0.000000	-0.000000
0.738750	0.000624	0.000193	-0.000000	0.000000	-0.000000	3452.351991	504.346964	298.163526	118.706643	7.690648	0.764300	0.235700	-0.000000	0.000000	-0.000000
0.746250	0.000610	0.000188	-0.000000	0.000000	-0.000000	3453.733837	499.726169	298.163589	114.809025	7.729215	0.764300	0.235700	-0.000000	0.000000	-0.000000
0.753750	0.000595	0.000183	-0.000000	0.000000	-0.000000	3455.126568	495.067102	298.163646	110.973020	7.768631	0.764300	0.235700	-0.000000	0.000000	-0.000000
0.761250	0.000580	0.000179	-0.000000	0.000000	-0.000000	3456.528538	490.375232	298.163698	107.203942	7.808875	0.764300	0.235700	-0.000000	0.000000	-0.000000
0.768750	0.000565	0.000174	-0.000000	0.000000	-0.000000	3457.938161	485.655832	298.163746	103.506475	7.849925	0.764300	0.235700	-0.000000	0.000000	-0.000000
0.776250	0.000551	0.000170	-0.000000	0.000000	-0.000000	3459.353911	480.913979	298.163789	99.884696	7.891760	0.764300	0.235700	-0.000000	0.000000	-0.000000
0.783750	0.000537	0.000166	-0.000000	0.000000	-0.000000	3460.774327	476.154549	298.163827	96.342104	7.934360	0.764300	0.235700	-0.000000	0.000000	-0.000000
0.791250	0.000523	0.000161	-0.000000	0.000000	-0.000000	3462.198010	471.382212	298.163862	92.881645	7.977703	0.764300	0.235700	-0.000000	0.000000	-0.000000
0.798750	0.000509	0.000157	-0.000000	0.000000	-0.000000	3463.623624	466.601435	298.163893	89.505744	8.021771	0.764300	0.235700	-0.000000	0.000000	-0.000000
0.806250	0.000495	0.000153	-0.000000	0.000000	-0.000000	3465.049898	461.816476	298.163921	86.216338	8.066541	0.764300	0.235700	-0.000000	0.000000	-0.000000
0.813750	0.000482	0.000149	-0.000000	0.000000	-0.000000	3466.475622	457.031389	298.163946	83.014905	8.111996	0.764300	0.235700	-0.000000	0.000000	-0.000000
0.821250	0.000469	0.000145	-0.000000	0.000000	-0.000000	3467.899653	452.250024	298.163968	79.902497	8.158115	0.764300	0.235700	-0.000000	0.000000	-0.000000
0.828750	0.000456	0.000141	-0.000000	0.000000	-0.000000	3469.320906	447.476027	298.163988	76.879772	8.204879	0.764300	0.235700	-0.000000	0.000000	-0.000000
0.836250	0.000443	0.000137	-0.000000	0.000000	-0.000000	3470.738358	442.712848	298.164005	73.947027	8.252269	0.764300	0.235700	-0.000000	0.000000	-0.000000
0.843750	0.000431	0.000133	-0.000000	0.000000	-0.000000	3472.151047	437.963739	298.164020	71.104228	8.300268	0.764300	0.235700	-0.000000	0.000000	-0.000000
0.851250	0.001393	0.000428	0.000000	0.000000	0.000002	1263.549589	5843.729632	1938.923835	3071.604569	0.801295	0.764220	0.234683	0.000170	0.000001	0.000926
0.858750	0.002373	0.000715	0.000003	0.000000	0.000015	642.576076	5807.609095	3332.212984	5219.969006	0.407832	0.763867	0.230271	0.000907	0.000009	0.004945
0.866250	0.002651	0.000770	0.000010	0.000000	0.000044	550.948036	5399.258422	4004.548196	5465.664712	0.361104	0.762857	0.221552	0.003015	0.000035	0.012541
0.873750	0.002859	0.000790	0.000026	0.000000	0.000082	490.293976	5094.326964	4329.538948	5621.613221	0.329115	0.761021	0.210269	0.006871	0.000072	0.021768
0.881250	0.003017	0.000789	0.000048	0.000000	0.000123	446.509842	4862.565440	4473.373411	5728.228125	0.305212	0.758500	0.198238	0.012192	0.000109	0.030961
0.888750	0.003139	0.000775	0.000077	0.000001	0.000163	412.903034	4684.176354	4521.231463	5805.673272	0.286231	0.755563	0.186549	0.018416	0.000141	0.039331
0.896250	0.003234	0.000755	0.000107	0.000001	0.000200	385.946007	4544.967899	4518.004947	5864.391752	0.270514	0.752463	0.175716	0.025001	0.000167	0.046654
0.903750	0.003308	0.000732	0.000139	0.000001	0.000234	363.567979	4434.634789	4488.018953	5910.397240	0.257086	0.749392	0.165920	0.031536	0.000188	0.052965
0.911250	0.003368	0.000709	0.000170	0.000001	0.000263	344.463192	4345.729202	4444.753215	5947.451531	0.245326	0.746474	0.157176	0.037751	0.000204	0.058396
0.918750	0.003417	0.000686	0.000200	0.000001	0.000290	327.771746	4272.882017	4395.781628	5978.024941	0.234818	0.743785	0.149421	0.043486	0.000216	0.063092
0.926250	0.003458	0.000665	0.000227	0.000001	0.000313	312.910558	4212.211777	4345.369861	6003.787108	0.225278	0.741360	0.142566	0.048659	0.000226	0.067188
0.933750	0.003492	0.000645	0.000252	0.000001	0.000334	299.474911	4160.892667	4295.887307	6025.890379	0.216508	0.739213	0.136514	0.053244	0.000233	0.070797
0.941250	0.003522	0.000627	0.000273	0.000001	0.000354	287.177897	4116.847464	4248.598075	6045.145154	0.208364	0.737341	0.131169	0.057243	0.000238	0.074009
0.948750	0.003549	0.000610	0.000293	0.000001	0.000371	275.811973	4078.532593	4204.116190	6062.132086	0.200742	0.735732	0.126446	0.060682	0.000242	0.076898
0.956250	0.003573	0.000595	0.000309	0.000001	0.000387	265.224003	4044.788764	4162.674027	6077.275202	0.193567	0.734368	0.122266	0.063599	0.000245	0.079523
0.963750	0.003595	0.000581	0.000324	0.000001	0.000402	255.298768	4014.737972	4124.284599	6090.890163	0.186779	0.733229	0.118563	0.066034	0.000246	0.081928
0.971250	0.003615	0.000569	0.000336	0.000001	0.000415	245.947881	3987.714054	4088.843106	6103.216463	0.180333	0.732295	0.115276	0.068033	0.000247	0.084149
0.978750	0.003634	0.000558	0.000346	0.000001	0.000428	237.102195	3963.219456	4056.194765	6114.439244	0.174192	0.731545	0.112355	0.069640	0.000248	0.086213
0.986250	0.003652	0.000548	0.000354	0.000001	0.000440	228.707119	3940.905869	4026.186325	6124.711338	0.168328	0.730957	0.109759	0.070898	0.000248	0.088138
0.993750	0.003669	0.000540	0.000361	0.000001	0.000452	220.751234	3920.575171	3998.713873	6134.527351	0.162739	0.730514	0.107460	0.071849	0.000248	0.089930
1.001250	0.003697	0.000534	0.000367	0.000001	0.000464	214.828240	3901.873412	3973.785262	6162.234164	0.158613	0.730198	0.105444	0.072528	0.000247	0.091584
1.008750	0.003716	0.000528	0.000371	0.000001	0.000474	212.502991	3884.265951	3951.096545	6176.194540	0.157125	0.729989	0.103675	0.072977	0.000246	0.093113
1.016250	0.003728	0.000522	0.000374	0.000001	0.000483	211.666423	3867.871505	3930.244158	6177.905283	0.156720	0.729867	0.102108	0.073240	0.000245	0.094540
1.023750	0.003739	0.000516	0.000376	0.000001	0.000491	210.957344	3852.758843	3911.027741	6179.004757	0.156391	0.729818	0.100712	0.073347	0.000244	0.095879
1.031250	0.003749	0.000511	0.000377	0.000001	0.000499	210.311564	3838.747402	3893.266107	6179.968929	0.156093	0.729829	0.099460	0.073327	0.000242	0.097142
1.038750	0.003759	0.000506	0.000377	0.000001	0.000506	209.717363	3825.682991	3876.796391	6180.836182	0.155820	0.729888	0.098332	0.073203	0.000241	0.098336
1.046250	0.003769	0.000502	0.000377	0.000001	0.000514	209.166929	3813.439985	3861.473832	6181.623527	0.155569	0.729988	0.097311	0.072993	0.000240	0.099469
1.053750	0.003778	0.000499	0.000376	0.000001	0.000520	208.654033	3801.915299	3847.170722	6182.343860	0.155335	0.730119	0.096381	0.072714	0.000238	0.100548
1.061250	0.003787	0.000495	0.000375	0.000001	0.000527	208.173614	3791.023576	3833.774951	6183.007433	0.155116	0.730277	0.095530	0.072379	0.000237	0.101577
1.068750	0.003795	0.000492	0.000374	0.000001	0.000533	207.721516	3780.693538	3821.188384	6183.622500	0.154912	0.730455	0.094747	0.072000	0.000236	0.102562
1.076250	0.003803	0.000489	0.000373	0.000001	0.000539	207.294298	3770.865193	3809.325264	6184.195769	0.154718	0.730650	0.094024	0.071585	0.000234	0.103507
1.083750	0.003811	0.000487	0.000371	0.000001	0.000545	206.889089	3761.487678	3798.110694	6184.732740	0.154536	0.730858	0.093353	0.071143	0.000233	0.104413
1.091250	0.003819	0.000484	0.000369	0.000001	0.000550	206.503476	3752.517568	3787.479251	6185.237959	0.154362	0.731075	0.092727	0.070681	0.000232	0.105286
1.098750	0.003827	0.000482	0.000367	0.000001	0.000555	206.135413	3743.917550	3777.373750	6185.715217	0.154197	0.731299	0.092141	0.070203	0.000230	0.106127
1.106250	0.003834	0.000480	0.000365	0.000001	0.000561	205.783160	3735.655372	3767.744148	6186.167693	0.154039	0.731529	0.091591	0.069714	0.000229	0.106938
1.113750	0.003841	0.000478	0.000363	0.000001	0.000565	205.445222	3727.702993	3758.546583	6186.598074	0.153887	0.731761	0.091071	0.069218	0.000228	0.107721
1.121250	0.003848	0.000476	0.000361	0.000001	0.000570	205.120312	3720.035902	3749.742544	6187.008643	0.153742	0.731996	0.090580	0.068718	0.000227	0.108479
1.128750	0.003855	0.000474	0.000359	0.000001	0.000575	204.807313	3712.632566	3741.298149	6187.401355	0.153602	0.732231	0.090113	0.068217	0.000226	0.109213
1.136250	0.003862	0.000473	0.000357	0.000001	0.000580	204.505253	3705.473973	3733.183521	6187.777889	0.153467	0.732465	0.089668	0.067717	0.000224	0.109925
1.143750	0.003868	0.000471	0.000355	0.000001	0.000584	204.213281	3698.543263	3725.372249	6188.139698	0.153337	0.732699	0.089243	0.067220	0.000223	0.110615
1.151250	0.003875	0.000470	0.000353	0.000001	0.000588	203.930646	3691.825412	3717.840934	6188.488042	0.153211	0.732930	0.088836	0.066727	0.000222	0.111285
1.158750	0.003881	0.000468	0.000351	0.000001	0.000593	203.656687	3685.306982	3710.568785	6188.824024	0.153090	0.733159	0.088446	0.066239	0.000221	0.111936
1.166250	0.003887	0.000467	0.000349	0.000001	0.000597	203.390816	3678.975900	3703.537280	6189.148609	0.152971	0.733385	0.088070	0.065757	0.000220	0.112569
1.173750	0.003893	0.000465	0.000346	0.000001	0.000601	203.132512	3672.821278	3696.729874	6189.462647	0.152857	0.733608	0.087707	0.065282	0.000219	0.113184
1.181250	0.003899	0.000464	0.000344	0.000001	0.000605	202.881304	3666.833263	3690.131745	6189.766890	0.152745	0.733827	0.087357	0.064815	0.000218	0.113784
1.188750	0.003905	0.000463	0.000342	0.000001	0.000608	202.636774	3661.002902	3683.729578	6190.062006	0.152637	0.734042	0.087018	0.064355	0.000217	0.114368
1.196250	0.003910	0.000462	0.000340	0.000001	0.000612	202.398542	3655.322037	3677.511374	6190.348590	0.152531	0.734254	0.086689	0.063903	0.000216	0.114937
1.203750	0.003916	0.000460	0.000338	0.000001	0.000616	202.166265	3649.783205	3671.466292	6190.627175	0.152428	0.734462	0.086371	0.063460	0.000215	0.115492
1.211250	0.003921	0.000459	0.000336	0.000001	0.000619	201.939633	3644.379560	3665.584510	6190.898240	0.152328	0.734666	0.086061	0.063026	0.000214	0.116034
1.218750	0.003926	0.000458	0.000334	0.000001	0.000623	201.718362	3639.104806	3659.857100	6191.162215	0.152230	0.734865	0.085759	0.062600	0.000213	0.116562
1.226250	0.003931	0.000457	0.000333	0.000001	0.000626	201.502193	3633.953129	3654.275925	6191.419490	0.152134	0.735061	0.085465	0.062183	0.000212	0.117078
1.233750	0.003936	0.000456	0.000331	0.000001	0.000629	201.290889	3628.919152	3648.833550	6191.670420	0.152041	0.735253	0.085179	0.061775	0.000211	0.117583
1.241250	0.003941	0.000455	0.000329	0.000001	0.000633	201.084231	3623.997886	3643.523162	6191.915327	0.151950	0.735440	0.084899	0.061375	0.000210	0.118075
1.248750	0.003946	0.000454	0.000327	0.000001	0.000636	200.882019	3619.184690	3638.338499	6192.154506	0.151860	0.735624	0.084626	0.060983	0.000209	0.118557
1.256250	0.003951	0.000453	0.000325	0.000001	0.000639	200.684066	3614.475240	3633.273793	6192.388225	0.151773	0.735804	0.084359	0.060600	0.000209	0.119029
1.263750	0.003955	0.000452	0.000324	0.000001	0.000642	200.490200	3609.865494	3628.323716	6192.616734	0.151687	0.735980	0.084098	0.060225	0.000208	0.119490
1.271250	0.003960	0.000451	0.000322	0.000001	0.000645	200.300259	3605.351669	3623.483335	6192.840260	0.151603	0.736152	0.083842	0.059858	0.000207	0.119941
1.278750	0.003964	0.000450	0.000320	0.000001	0.000648	200.114095	3600.930214	3618.748069	6193.059016	0.151521	0.736320	0.083592	0.059499	0.000206	0.120383
1.286250	0.003969	0.000449	0.000319	0.000001	0.000651	199.931567	3596.597792	3614.113661	6193.273197	0.151441	0.736485	0.083347	0.059148	0.000205	0.120816
1.293750	0.003973	0.000448	0.000317	0.000001	0.000654	199.752545	3592.351261	3609.576136	6193.482985	0.151362	0.736646	0.083106	0.058804	0.000204	0.121239
1.301250	0.003977	0.000447	0.000316	0.000001	0.000657	199.576906	3588.187658	3605.131783	6193.688550	0.151284	0.736804	0.082870	0.058468	0.000204	0.121655
1.308750	0.003982	0.000446	0.000314	0.000001	0.000659	199.404534	3584.104180	3600.777125	6193.890049	0.151208	0.736958	0.082638	0.058139	0.000203	0.122062
1.316250	0.003986	0.000446	0.000313	0.000001	0.000662	199.235321	3580.098177	3596.508903	6194.087632	0.151134	0.737109	0.082411	0.057817	0.000202	0.122461
1.323750	0.003990	0.000445	0.000311	0.000001	0.000665	199.069163	3576.167139	3592.324051	6194.281437	0.151060	0.737257	0.082187	0.057501	0.000201	0.122853
1.331250	0.003994	0.000444	0.000310	0.000001	0.000667	198.905965	3572.308681	3588.219681	6194.471594	0.150989	0.737402	0.081968	0.057193	0.000201	0.123237
1.338750	0.003998	0.000443	0.000308	0.000001	0.000670	198.745632	3568.520540	3584.193072	6194.658227	0.150918	0.737544	0.081752	0.056890	0.000200	0.123613
1.346250	0.004002	0.000442	0.000307	0.000001	0.000673	198.588079	3564.800561	3580.241651	6194.841452	0.150849	0.737683	0.081540	0.056594	0.000199	0.123983
1.353750	0.004005	0.000442	0.000306	0.000001	0.000675	198.433222	3561.146695	3576.362985	6195.021378	0.150780	0.737819	0.081332	0.056305	0.000198	0.124346
1.361250	0.004009	0.000441	0.000304	0.000001	0.000677	198.280983	3557.556988	3572.554771	6195.198109	0.150713	0.737952	0.081127	0.056021	0.000198	0.124703
1.368750	0.004013	0.000440	0.000303	0.000001	0.000680	198.131285	3554.029581	3568.814826	6195.371743	0.150647	0.738083	0.080925	0.055743	0.000197	0.125053
1.376250	0.004016	0.000439	0.000302	0.000001	0.000682	197.984059	3550.562704	3565.141085	6195.542374	0.150583	0.738210	0.080727	0.055470	0.000196	0.125396
1.383750	0.004020	0.000438	0.000301	0.000001	0.000685	197.839234	3547.154677	3561.531596	6195.710091	0.150519	0.738336	0.080532	0.055203	0.000196	0.125734
1.391250	0.004023	0.000438	0.000299	0.000001	0.000687	197.696746	3543.803919	3557.984527	6195.874978	0.150456	0.738459	0.080339	0.054941	0.000195	0.126066
1.398750	0.004027	0.000437	0.000298	0.000001	0.000689	197.556532	3540.508962	3554.498179	6196.037115	0.150394	0.738579	0.080150	0.054684	0.000194	0.126392
1.406250	0.004030	0.000436	0.000297	0.000001	0.000691	197.418531	3537.268486	3551.071024	6196.196579	0.150334	0.738697	0.079964	0.054433	0.000194	0.126713
1.413750	0.004034	0.000436	0.000296	0.000001	0.000694	197.282686	3534.081389	3547.701773	6196.353442	0.150274	0.738813	0.079780	0.054186	0.000193	0.127028
1.421250	0.004037	0.000435	0.000295	0.000001	0.000696	197.148940	3530.946916	3544.389516	6196.507774	0.150215	0.738926	0.079599	0.053944	0.000193	0.127337
1.428750	0.004040	0.000434	0.000294	0.000001	0.000698	197.017240	3527.864908	3541.133971	6196.659639	0.150157	0.739038	0.079421	0.053707	0.000192	0.127642