TITLE = "title"
VARIABLES = "X","rhoN2","rhoO2","rhoNO","rhoN","rhoO","u","T","Tv","P","M","YN2","YO2","YNO","YN","YO"
ZONE I=200, DATAPACKING=POINT
0.003750	0.000242	0.000075	0.000000	-0.000000	-0.000000	3499.483114	345.699419	298.150001	31.551203	9.416015	0.764300	0.235700	0.000000	-0.000000	-0.000000
0.011250	0.000250	0.000077	0.000000	0.000000	0.000000	3498.252504	349.869105	298.150002	32.915537	9.356446	0.764300	0.235700	0.000000	0.000000	0.000000
0.018750	0.000257	0.000079	0.000000	0.000000	0.000000	3497.007026	354.087676	298.150003	34.338396	9.297232	0.764300	0.235700	0.000000	0.000000	0.000000
0.026250	0.000265	0.000082	0.000000	0.000000	0.000000	3495.746823	358.354590	298.150004	35.821887	9.238385	0.764300	0.235700	0.000000	0.000000	0.000000
0.033750	0.000273	0.000084	0.000000	0.000000	0.000000	3494.472068	362.669212	298.150005	37.368143	9.179918	0.764300	0.235700	0.000000	0.000000	0.000000
0.041250	0.000282	0.000087	0.000000	0.000000	0.000000	3493.182963	367.030805	298.150007	38.979307	9.121844	0.764300	0.235700	0.000000	0.000000	0.000000
0.048750	0.000290	0.000090	0.000000	0.000000	0.000000	3491.879742	371.438523	298.150009	40.657532	9.064177	0.764300	0.235700	0.000000	0.000000	0.000000
0.056250	0.000299	0.000092	0.000000	0.000000	0.000000	3490.562673	375.891406	298.150012	42.404967	9.006931	0.764300	0.235700	0.000000	0.000000	0.000000
0.063750	0.000308	0.000095	0.000000	0.000000	0.000000	3489.232059	380.388375	298.150014	44.223749	8.950119	0.764300	0.235700	0.000000	0.000000	0.000000
0.071250	0.000318	0.000098	0.000000	0.000000	0.000000	3487.888243	384.928223	298.150018	46.115992	8.893757	0.764300	0.235700	0.000000	0.000000	0.000000
0.078750	0.000328	0.000101	0.000000	0.000000	0.000000	3486.531606	389.509612	298.150022	48.083775	8.837859	0.764300	0.235700	0.000000	0.000000	0.000000
0.086250	0.000337	0.000104	0.000000	0.000000	0.000000	3485.162570	394.131064	298.150026	50.129126	8.782442	0.764300	0.235700	0.000000	0.000000	0.000000
0.093750	0.000348	0.000107	0.000000	0.000000	0.000000	3483.781603	398.790954	298.150032	52.254009	8.727520	0.764300	0.235700	0.000000	0.000000	0.000000
0.101250	0.000358	0.000110	0.000000	0.000000	0.000000	3482.389217	403.487507	298.150038	54.460306	8.673110	0.764300	0.235700	0.000000	0.000000	0.000000
0.108750	0.000369	0.000114	0.000000	0.000000	0.000000	3480.985972	408.218787	298.150045	56.749802	8.619228	0.764300	0.235700	0.000000	0.000000	0.000000
0.116250	0.000380	0.000117	0.000000	0.000000	0.000000	3479.572478	412.982694	298.150053	59.124162	8.565891	0.764300	0.235700	0.000000	0.000000	0.000000
0.123750	0.000391	0.000121	0.000000	0.000000	0.000000	3478.149398	417.776957	298.150063	61.584912	8.513116	0.764300	0.235700	0.000000	0.000000	0.000000
0.131250	0.000403	0.000124	0.000000	0.000000	0.000000	3476.717447	422.599126	298.150073	64.133416	8.460922	0.764300	0.235700	0.000000	0.000000	0.000000
0.138750	0.000414	0.000128	0.000000	0.000000	0.000000	3475.277396	427.446568	298.150086	66.770853	8.409325	0.764300	0.235700	0.000000	0.000000	0.000000
0.146250	0.000426	0.000132	0.000000	0.000000	0.000000	3473.830074	432.316461	298.150100	69.498189	8.358344	0.764300	0.235700	0.000000	0.000000	0.000000
0.153750	0.000439	0.000135	0.000000	0.000000	0.000000	3472.376370	437.205789	298.150116	72.316154	8.307999	0.764300	0.235700	0.000000	0.000000	0.000000
0.161250	0.000451	0.000139	0.000000	0.000000	0.000000	3470.917232	442.111335	298.150134	75.225207	8.258307	0.764300	0.235700	0.000000	0.000000	0.000000
0.168750	0.000464	0.000143	0.000000	0.000000	0.000000	3469.453670	447.029680	298.150154	78.225516	8.209288	0.764300	0.235700	0.000000	0.000000	0.000000
0.176250	0.000477	0.000147	0.000000	0.000000	0.000000	3467.986761	451.957196	298.150177	81.316920	8.160962	0.764300	0.235700	0.000000	0.000000	0.000000
0.183750	0.000491	0.000151	0.000000	-0.000000	0.000000	3466.517641	456.890045	298.150203	84.498897	8.113349	0.764300	0.235700	0.000000	-0.000000	0.000000
0.191250	0.000504	0.000155	0.000000	-0.000000	0.000000	3465.047518	461.824175	298.150232	87.770539	8.066468	0.764300	0.235700	0.000000	-0.000000	0.000000
0.198750	0.000518	0.000160	0.000000	0.000000	0.000000	3463.577660	466.755320	298.150265	91.130511	8.020342	0.764300	0.235700	0.000000	0.000000	0.000000
0.206250	0.000532	0.000164	0.000000	-0.000000	0.000000	3462.109405	471.678998	298.150301	94.577024	7.974989	0.764300	0.235700	0.000000	-0.000000	0.000000
0.213750	0.000546	0.000168	0.000000	-0.000000	0.000000	3460.644158	476.590509	298.150342	98.107797	7.930432	0.764300	0.235700	0.000000	-0.000000	0.000000
0.221250	0.000560	0.000173	0.000000	-0.000000	0.000000	3459.183389	481.484943	298.150387	101.720031	7.886691	0.764300	0.235700	0.000000	-0.000000	0.000000
0.228750	0.000575	0.000177	0.000000	-0.000000	0.000000	3457.728632	486.357174	298.150437	105.410374	7.843787	0.764300	0.235700	0.000000	-0.000000	0.000000
0.236250	0.000590	0.000182	0.000000	-0.000000	0.000000	3456.281490	491.201871	298.150492	109.174890	7.801744	0.764300	0.235700	0.000000	-0.000000	0.000000
0.243750	0.000604	0.000186	0.000000	-0.000000	0.000000	3454.843626	496.013498	298.150553	113.009037	7.760581	0.764300	0.235700	0.000000	-0.000000	0.000000
0.251250	0.000619	0.000191	0.000000	-0.000000	0.000000	3453.416766	500.786325	298.150619	116.907636	7.720321	0.764300	0.235700	0.000000	-0.000000	0.000000
0.258750	0.000634	0.000196	0.000000	-0.000000	0.000000	3452.002694	505.514430	298.150693	120.864855	7.680985	0.764300	0.235700	0.000000	-0.000000	0.000000
0.266250	0.000649	0.000200	0.000000	-0.000000	0.000000	3450.603251	510.191715	298.150772	124.874186	7.642596	0.764300	0.235700	0.000000	-0.000000	0.000000
0.273750	0.000664	0.000205	0.000000	0.000000	0.000000	3449.220330	514.811914	298.150860	128.928437	7.605175	0.764300	0.235700	0.000000	0.000000	0.000000
0.281250	0.000679	0.000210	0.000000	-0.000000	0.000000	3447.855876	519.368605	298.150954	133.019716	7.568744	0.764300	0.235700	0.000000	-0.000000	0.000000
0.288750	0.000695	0.000214	0.000000	-0.000000	0.000000	3446.511875	523.855228	298.151057	137.139440	7.533325	0.764300	0.235700	0.000000	-0.000000	0.000000
0.296250	0.000710	0.000219	0.000000	-0.000000	0.000000	3445.190355	528.265097	298.151168	141.278327	7.498939	0.764300	0.235700	0.000000	-0.000000	0.000000
0.303750	0.000724	0.000223	0.000000	-0.000000	0.000000	3443.893379	532.591422	298.151287	145.426415	7.465608	0.764300	0.235700	0.000000	-0.000000	0.000000
0.311250	0.000739	0.000228	0.000000	-0.000000	0.000000	3442.623035	536.827328	298.151415	149.573081	7.433353	0.764300	0.235700	0.000000	-0.000000	0.000000
0.318750	0.000754	0.000232	0.000000	-0.000000	0.000000	3441.381437	540.965874	298.151552	153.707061	7.402194	0.764300	0.235700	0.000000	-0.000000	0.000000
0.326250	0.000768	0.000237	0.000000	-0.000000	0.000000	3440.170711	545.000079	298.151699	157.816492	7.372152	0.764300	0.235700	0.000000	-0.000000	0.000000
0.333750	0.000782	0.000241	0.000000	-0.000000	0.000000	3438.992991	548.922946	298.151855	161.888955	7.343248	0.764300	0.235700	0.000000	-0.000000	0.000000
0.341250	0.000796	0.000246	0.000000	-0.000000	0.000000	3437.850408	552.727488	298.152020	165.911526	7.315500	0.764300	0.235700	0.000000	-0.000000	0.000000
0.348750	0.000810	0.000250	0.000000	-0.000000	0.000000	3436.745087	556.406755	298.152195	169.870840	7.288929	0.764300	0.235700	0.000000	-0.000000	0.000000
0.356250	0.000823	0.000254	0.000000	-0.000000	0.000000	3435.679133	559.953864	298.152380	173.753162	7.263552	0.764300	0.235700	0.000000	-0.000000	0.000000
0.363750	0.000836	0.000258	0.000000	-0.000000	0.000000	3434.654622	563.362025	298.152574	177.544466	7.239388	0.764300	0.235700	0.000000	-0.000000	0.000000
0.371250	0.000849	0.000262	0.000000	-0.000000	0.000000	3433.673596	566.624578	298.152778	181.230525	7.216455	0.764300	0.235700	0.000000	-0.000000	0.000000
0.378750	0.000861	0.000265	0.000000	-0.000000	0.000000	3432.738048	569.735017	298.152991	184.797006	7.194768	0.764300	0.235700	0.000000	-0.000000	0.000000
0.386250	0.000872	0.000269	0.000000	-0.000000	0.000000	3431.849917	572.687028	298.153214	188.229574	7.174344	0.764300	0.235700	0.000000	-0.000000	0.000000
0.393750	0.000883	0.000272	0.000000	-0.000000	0.000000	3431.011072	575.474513	298.153445	191.513998	7.155198	0.764300	0.235700	0.000000	-0.000000	0.000000
0.401250	0.000893	0.000275	0.000000	0.000000	-0.000000	3430.223311	578.091629	298.153684	194.636267	7.137344	0.764300	0.235700	0.000000	0.000000	-0.000000
0.408750	0.000903	0.000278	0.000000	0.000000	-0.000000	3429.488343	580.532814	298.153932	197.582703	7.120796	0.764300	0.235700	0.000000	0.000000	-0.000000
0.416250	0.000912	0.000281	0.000000	0.000000	-0.000000	3428.807783	582.792816	298.154187	200.340084	7.105565	0.764300	0.235700	0.000000	0.000000	-0.000000
0.423750	0.000920	0.000284	0.000000	0.000000	-0.000000	3428.183143	584.866728	298.154449	202.895761	7.091664	0.764300	0.235700	0.000000	0.000000	-0.000000
0.431250	0.000928	0.000286	0.000000	0.000000	-0.000000	3427.615820	586.750007	298.154718	205.237774	7.079102	0.764300	0.235700	0.000000	0.000000	-0.000000
0.438750	0.000935	0.000288	0.000000	0.000000	-0.000000	3427.107093	588.438510	298.154992	207.354967	7.067889	0.764300	0.235700	0.000000	0.000000	-0.000000
0.446250	0.000941	0.000290	0.000000	0.000000	-0.000000	3426.658110	589.928509	298.155272	209.237098	7.058033	0.764300	0.235700	0.000000	0.000000	-0.000000
0.453750	0.000946	0.000292	0.000000	0.000000	-0.000000	3426.269886	591.216717	298.155557	210.874939	7.049540	0.764300	0.235700	0.000000	0.000000	-0.000000
0.461250	0.000951	0.000293	0.000000	0.000000	-0.000000	3425.943293	592.300308	298.155845	212.260373	7.042417	0.764300	0.235700	0.000000	0.000000	-0.000000
0.468750	0.000954	0.000294	-0.000000	0.000000	-0.000000	3425.679057	593.176934	298.156136	213.386477	7.036669	0.764300	0.235700	-0.000000	0.000000	-0.000000
0.476250	0.000957	0.000295	0.000000	0.000000	-0.000000	3425.477752	593.844735	298.156430	214.247594	7.032298	0.764300	0.235700	0.000000	0.000000	-0.000000
0.483750	0.000959	0.000296	-0.000000	0.000000	-0.000000	3425.339799	594.302355	298.156725	214.839394	7.029307	0.764300	0.235700	-0.000000	0.000000	-0.000000
0.491250	0.000960	0.000296	-0.000000	0.000000	-0.000000	3425.265460	594.548947	298.157021	215.158918	7.027697	0.764300	0.235700	-0.000000	0.000000	-0.000000
0.498750	0.000960	0.000296	-0.000000	0.000000	-0.000000	3425.254841	594.584179	298.157317	215.204611	7.027467	0.764300	0.235700	-0.000000	0.000000	-0.000000
0.506250	0.000960	0.000296	0.000000	0.000000	-0.000000	3425.307886	594.408233	298.157612	214.976339	7.028615	0.764300	0.235700	0.000000	0.000000	-0.000000
0.513750	0.000958	0.000295	0.000000	0.000000	-0.000000	3425.424382	594.021806	298.157906	214.475387	7.031140	0.764300	0.235700	0.000000	0.000000	-0.000000
0.521250	0.000955	0.000295	-0.000000	0.000000	-0.000000	3425.603959	593.426105	298.158197	213.704447	7.035037	0.764300	0.235700	-0.000000	0.000000	-0.000000
0.528750	0.000952	0.000294	-0.000000	0.000000	-0.000000	3425.846094	592.622834	298.158485	212.667586	7.040301	0.764300	0.235700	-0.000000	0.000000	-0.000000
0.536250	0.000948	0.000292	-0.000000	0.000000	-0.000000	3426.150111	591.614190	298.158770	211.370203	7.046925	0.764300	0.235700	-0.000000	0.000000	-0.000000
0.543750	0.000943	0.000291	-0.000000	0.000000	0.000000	3426.515190	590.402841	298.159050	209.818970	7.054903	0.764300	0.235700	-0.000000	0.000000	0.000000
0.551250	0.000937	0.000289	-0.000000	0.000000	0.000000	3426.940369	588.991914	298.159324	208.021758	7.064224	0.764300	0.235700	-0.000000	0.000000	0.000000
0.558750	0.000930	0.000287	-0.000000	0.000000	0.000000	3427.424550	587.384975	298.159593	205.987559	7.074880	0.764300	0.235700	-0.000000	0.000000	0.000000
0.566250	0.000923	0.000285	-0.000000	0.000000	-0.000000	3427.966511	585.586005	298.159856	203.726391	7.086859	0.764300	0.235700	-0.000000	0.000000	-0.000000
0.573750	0.000915	0.000282	-0.000000	0.000000	-0.000000	3428.564906	583.599376	298.160111	201.249194	7.100150	0.764300	0.235700	-0.000000	0.000000	-0.000000
0.581250	0.000906	0.000279	-0.000000	0.000000	-0.000000	3429.218280	581.429827	298.160359	198.567729	7.114740	0.764300	0.235700	-0.000000	0.000000	-0.000000
0.588750	0.000897	0.000276	-0.000000	0.000000	-0.000000	3429.925071	579.082435	298.160599	195.694456	7.130615	0.764300	0.235700	-0.000000	0.000000	-0.000000
0.596250	0.000886	0.000273	-0.000000	0.000000	-0.000000	3430.683626	576.562587	298.160830	192.642425	7.147761	0.764300	0.235700	-0.000000	0.000000	-0.000000
0.603750	0.000876	0.000270	-0.000000	0.000000	-0.000000	3431.492205	573.875951	298.161053	189.425154	7.166161	0.764300	0.235700	-0.000000	0.000000	-0.000000
0.611250	0.000864	0.000267	-0.000000	0.000000	-0.000000	3432.348992	571.028444	298.161267	186.056513	7.185800	0.764300	0.235700	-0.000000	0.000000	-0.000000
0.618750	0.000853	0.000263	-0.000000	-0.000000	-0.000000	3433.252106	568.026201	298.161472	182.550608	7.206661	0.764300	0.235700	-0.000000	-0.000000	-0.000000
0.626250	0.000840	0.000259	-0.000000	-0.000000	-0.000000	3434.199608	564.875549	298.161668	178.921668	7.228725	0.764300	0.235700	-0.000000	-0.000000	-0.000000
0.633750	0.000828	0.000255	-0.000000	0.000000	-0.000000	3435.189513	561.582968	298.161854	175.183935	7.251975	0.764300	0.235700	-0.000000	0.000000	-0.000000
0.641250	0.000814	0.000251	-0.000000	-0.000000	-0.000000	3436.219798	558.155069	298.162030	171.351565	7.276392	0.764300	0.235700	-0.000000	-0.000000	-0.000000
0.648750	0.000801	0.000247	-0.000000	-0.000000	-0.000000	3437.288412	554.598559	298.162197	167.438528	7.301955	0.764300	0.235700	-0.000000	-0.000000	-0.000000
0.656250	0.000787	0.000243	-0.000000	-0.000000	-0.000000	3438.393283	550.920214	298.162355	163.458525	7.328646	0.764300	0.235700	-0.000000	-0.000000	-0.000000
0.663750	0.000773	0.000238	-0.000000	-0.000000	-0.000000	3439.532331	547.126850	298.162503	159.424900	7.356444	0.764300	0.235700	-0.000000	-0.000000	-0.000000
0.671250	0.000759	0.000234	-0.000000	0.000000	-0.000000	3440.703471	543.225300	298.162643	155.350577	7.385329	0.764300	0.235700	-0.000000	0.000000	-0.000000
0.678750	0.000744	0.000229	-0.000000	0.000000	-0.000000	3441.904625	539.222382	298.162773	151.247990	7.415278	0.764300	0.235700	-0.000000	0.000000	-0.000000
0.686250	0.000729	0.000225	-0.000000	0.000000	-0.000000	3443.133726	535.124882	298.162894	147.129034	7.446272	0.764300	0.235700	-0.000000	0.000000	-0.000000
0.693750	0.000715	0.000220	-0.000000	0.000000	-0.000000	3444.388727	530.939526	298.163007	143.005016	7.478288	0.764300	0.235700	-0.000000	0.000000	-0.000000
0.701250	0.000700	0.000216	-0.000000	0.000000	-0.000000	3445.667609	526.672963	298.163112	138.886624	7.511306	0.764300	0.235700	-0.000000	0.000000	-0.000000
0.708750	0.000685	0.000211	-0.000000	0.000000	-0.000000	3446.968381	522.331744	298.163209	134.783893	7.545303	0.764300	0.235700	-0.000000	0.000000	-0.000000
0.716250	0.000670	0.000206	0.000000	0.000000	-0.000000	3448.289092	517.922305	298.163298	130.706189	7.580257	0.764300	0.235700	0.000000	0.000000	-0.000000
0.723750	0.000654	0.000202	0.000000	0.000000	-0.000000	3449.627831	513.450949	298.163381	126.662196	7.616147	0.764300	0.235700	0.000000	0.000000	-0.000000
0.731250	0.000639	0.000197	0.000000	0.000000	-0.000000	3450.982736	508.923835	298.163456	122.659910	7.652952	0.764300	0.235700	0.000000	0.000000	-0.000000
0.738750	0.000624	0.000193	0.000000	0.000000	-0.000000	3452.351991	504.346964	298.163526	118.706643	7.690648	0.764300	0.235700	0.000000	0.000000	-0.000000
0.746250	0.000610	0.000188	0.000000	0.000000	-0.000000	3453.733837	499.726169	298.163589	114.809025	7.729215	0.764300	0.235700	0.000000	0.000000	-0.000000
0.753750	0.000595	0.000183	0.000000	0.000000	-0.000000	3455.126568	495.067102	298.163646	110.973020	7.768631	0.764300	0.235700	0.000000	0.000000	-0.000000
0.761250	0.000580	0.000179	0.000000	0.000000	-0.000000	3456.528538	490.375232	298.163698	107.203942	7.808875	0.764300	0.235700	0.000000	0.000000	-0.000000
0.768750	0.000565	0.000174	0.000000	0.000000	-0.000000	3457.938161	485.655832	298.163746	103.506475	7.849925	0.764300	0.235700	0.000000	0.000000	-0.000000
0.776250	0.000551	0.000170	0.000000	0.000000	-0.000000	3459.353911	480.913979	298.163789	99.884696	7.891760	0.764300	0.235700	0.000000	0.000000	-0.000000
0.783750	0.000537	0.000166	0.000000	0.000000	-0.000000	3460.774327	476.154549	298.163827	96.342104	7.934360	0.764300	0.235700	0.000000	0.000000	-0.000000
0.791250	0.000523	0.000161	0.000000	0.000000	-0.000000	3462.198010	471.382212	298.163862	92.881645	7.977703	0.764300	0.235700	0.000000	0.000000	-0.000000
0.798750	0.000509	0.000157	0.000000	0.000000	-0.000000	3463.623624	466.601435	298.163893	89.505744	8.021771	0.764300	0.235700	0.000000	0.000000	-0.000000
0.806250	0.000495	0.000153	0.000000	0.000000	-0.000000	3465.049898	461.816476	298.163921	86.216338	8.066541	0.764300	0.235700	0.000000	0.000000	-0.000000
0.813750	0.000482	0.000149	0.000000	0.000000	-0.000000	3466.475622	457.031389	298.163946	83.014905	8.111996	0.764300	0.235700	0.000000	0.000000	-0.000000
0.821250	0.000469	0.000145	0.000000	0.000000	-0.000000	3467.899653	452.250024	298.163968	79.902497	8.158115	0.764300	0.235700	0.000000	0.000000	-0.000000
0.828750	0.000456	0.000141	0.000000	-0.000000	-0.000000	3469.320906	447.476027	298.163988	76.879772	8.204879	0.764300	0.235700	0.000000	-0.000000	-0.000000
0.836250	0.000443	0.000137	0.000000	0.000000	-0.000000	3470.738358	442.712848	298.164005	73.947027	8.252269	0.764300	0.235700	0.000000	0.000000	-0.000000
0.843750	0.000681	0.000210	0.000000	-0.000000	-0.000000	2460.093088	3740.321772	860.629755	959.553299	1.951061	0.764300	0.235700	0.000000	-0.000000	-0.000000
0.851250	0.002168	0.000669	0.000000	-0.000000	-0.000000	743.154097	6017.640421	2922.411184	4917.126716	0.464665	0.764300	0.235700	0.000000	-0.000000	-0.000000
0.858750	0.002556	0.000788	0.000000	-0.000000	-0.000000	588.106432	5664.809065	3913.378948	5457.696497	0.378998	0.764300	0.235700	0.000000	-0.000000	-0.000000
0.866250	0.002761	0.000851	0.000000	0.000000	-0.000000	520.001843	5440.352229	4455.170199	5661.011516	0.341952	0.764300	0.235700	0.000000	0.000000	-0.000000
0.873750	0.002888	0.000891	-0.000000	0.000000	-0.000000	477.196070	5312.057587	4757.650028	5783.201889	0.317570	0.764300	0.235700	-0.000000	0.000000	-0.000000
0.881250	0.002967	0.000915	-0.000000	0.000000	-0.000000	447.767835	5240.187893	4928.674733	5861.070351	0.300022	0.764300	0.235700	-0.000000	0.000000	-0.000000
0.888750	0.003017	0.000930	-0.000000	0.000000	-0.000000	425.811308	5200.929743	5026.171404	5913.483504	0.286385	0.764300	0.235700	-0.000000	0.000000	-0.000000
0.896250	0.003048	0.000940	-0.000000	0.000000	-0.000000	408.143800	5180.336578	5082.200493	5951.117181	0.275048	0.764300	0.235700	-0.000000	0.000000	-0.000000
0.903750	0.003069	0.000946	-0.000000	0.000000	-0.000000	393.015749	5170.295126	5114.815571	5980.017227	0.265110	0.764300	0.235700	-0.000000	0.000000	-0.000000
0.911250	0.003083	0.000951	-0.000000	0.000000	-0.000000	379.456241	5166.122297	5134.242474	6003.604780	0.256067	0.764300	0.235700	-0.000000	0.000000	-0.000000
0.918750	0.003094	0.000954	-0.000000	0.000000	-0.000000	366.924126	5165.142443	5146.262967	6023.815953	0.247633	0.764300	0.235700	-0.000000	0.000000	-0.000000
0.926250	0.003103	0.000957	-0.000000	0.000000	-0.000000	355.116869	5165.845636	5154.126080	6041.749036	0.239648	0.764300	0.235700	-0.000000	0.000000	-0.000000
0.933750	0.003110	0.000959	-0.000000	0.000000	-0.000000	343.864276	5167.391868	5159.642754	6058.031998	0.232020	0.764300	0.235700	-0.000000	0.000000	-0.000000
0.941250	0.003117	0.000961	-0.000000	0.000000	-0.000000	333.069171	5169.321466	5163.813912	6073.030466	0.224694	0.764300	0.235700	-0.000000	0.000000	-0.000000
0.948750	0.003123	0.000963	-0.000000	0.000000	-0.000000	322.674384	5171.387842	5167.188873	6086.964637	0.217638	0.764300	0.235700	-0.000000	0.000000	-0.000000
0.956250	0.003128	0.000965	-0.000000	0.000000	-0.000000	312.644519	5173.462150	5170.067929	6099.974382	0.210831	0.764300	0.235700	-0.000000	0.000000	-0.000000
0.963750	0.003133	0.000966	-0.000000	0.000000	-0.000000	302.955972	5175.479703	5172.615473	6112.155135	0.204258	0.764300	0.235700	-0.000000	0.000000	-0.000000
0.971250	0.003138	0.000968	-0.000000	0.000000	-0.000000	293.591518	5177.410430	5174.922091	6123.577417	0.197907	0.764300	0.235700	-0.000000	0.000000	-0.000000
0.978750	0.003142	0.000969	-0.000000	0.000000	-0.000000	284.537384	5179.243498	5177.036937	6134.297267	0.191770	0.764300	0.235700	-0.000000	0.000000	-0.000000
0.986250	0.003146	0.000970	-0.000000	-0.000000	-0.000000	275.782131	5180.982103	5178.978927	6144.367433	0.185838	0.764300	0.235700	-0.000000	-0.000000	-0.000000
0.993750	0.003150	0.000972	-0.000000	-0.000000	-0.000000	267.349786	5182.644014	5180.716865	6154.199056	0.180127	0.764300	0.235700	-0.000000	-0.000000	-0.000000
1.001250	0.003165	0.000976	-0.000000	-0.000000	-0.000000	261.163647	5183.775479	5182.063615	6183.995137	0.175940	0.764300	0.235700	-0.000000	-0.000000	-0.000000
1.008750	0.003172	0.000978	-0.000000	-0.000000	-0.000000	259.299806	5183.913074	5182.845982	6198.267867	0.174682	0.764300	0.235700	-0.000000	-0.000000	-0.000000
1.016250	0.003173	0.000978	-0.000000	-0.000000	-0.000000	259.205718	5183.744193	5183.225079	6198.898653	0.174621	0.764300	0.235700	-0.000000	-0.000000	-0.000000
1.023750	0.003173	0.000978	-0.000000	-0.000000	-0.000000	259.190442	5183.654836	5183.406449	6198.969021	0.174612	0.764300	0.235700	-0.000000	-0.000000	-0.000000
1.031250	0.003173	0.000978	-0.000000	-0.000000	-0.000000	259.184250	5183.611862	5183.493163	6198.994025	0.174609	0.764300	0.235700	-0.000000	-0.000000	-0.000000
1.038750	0.003173	0.000978	-0.000000	-0.000000	-0.000000	259.181333	5183.591365	5183.534645	6199.005658	0.174607	0.764300	0.235700	-0.000000	-0.000000	-0.000000
1.046250	0.003173	0.000978	-0.000000	-0.000000	-0.000000	259.179939	5183.581621	5183.554515	6199.011212	0.174606	0.764300	0.235700	-0.000000	-0.000000	-0.000000
1.053750	0.003173	0.000978	-0.000000	-0.000000	-0.000000	259.179273	5183.577016	5183.564061	6199.013874	0.174606	0.764300	0.235700	-0.000000	-0.000000	-0.000000
1.061250	0.003173	0.000978	-0.000000	-0.000000	-0.000000	259.178953	5183.574868	5183.568674	6199.015155	0.174606	0.764300	0.235700	-0.000000	-0.000000	-0.000000
1.068750	0.003173	0.000978	-0.000000	-0.000000	-0.000000	259.178800	5183.573894	5183.570931	6199.015775	0.174606	0.764300	0.235700	-0.000000	-0.000000	-0.000000
1.076250	0.003173	0.000978	-0.000000	-0.000000	-0.000000	259.178726	5183.573481	5183.572061	6199.016080	0.174606	0.764300	0.235700	-0.000000	-0.000000	-0.000000
1.083750	0.003173	0.000978	-0.000000	-0.000000	-0.000000	259.178690	5183.573335	5183.572653	6199.016235	0.174606	0.764300	0.235700	-0.000000	-0.000000	-0.000000
1.091250	0.003173	0.000978	-0.000000	-0.000000	-0.000000	259.178672	5183.573315	5183.572986	6199.016318	0.174606	0.764300	0.235700	-0.000000	-0.000000	-0.000000
1.098750	0.003173	0.000978	-0.000000	-0.000000	-0.000000	259.178662	5183.573355	5183.573194	6199.016366	0.174606	0.764300	0.235700	-0.000000	-0.000000	-0.000000
1.106250	0.003173	0.000978	-0.000000	-0.000000	-0.000000	259.178657	5183.573421	5183.573340	6199.016399	0.174606	0.764300	0.235700	-0.000000	-0.000000	-0.000000
1.113750	0.003173	0.000978	-0.000000	-0.000000	-0.000000	259.178653	5183.573498	5183.573455	6199.016423	0.174606	0.764300	0.235700	-0.000000	-0.000000	-0.000000
1.121250	0.003173	0.000978	-0.000000	-0.000000	-0.000000	259.178651	5183.573576	5183.573552	6199.016444	0.174606	0.764300	0.235700	-0.000000	-0.000000	-0.000000
1.128750	0.003173	0.000978	-0.000000	-0.000000	-0.000000	259.178649	5183.573652	5183.573637	6199.016462	0.174606	0.764300	0.235700	-0.000000	-0.000000	-0.000000
1.136250	0.003173	0.000978	-0.000000	-0.000000	-0.000000	259.178647	5183.573724	5183.573713	6199.016480	0.174606	0.764300	0.235700	-0.000000	-0.000000	-0.000000
1.143750	0.003173	0.000978	-0.000000	-0.000000	-0.000000	259.178645	5183.573790	5183.573780	6199.016497	0.174606	0.764300	0.235700	-0.000000	-0.000000	-0.000000
1.151250	0.003173	0.000978	-0.000000	-0.000000	-0.000000	259.178644	5183.573848	5183.573840	6199.016514	0.174606	0.764300	0.235700	-0.000000	-0.000000	-0.000000
1.158750	0.003173	0.000978	-0.000000	-0.000000	-0.000000	259.178642	5183.573899	5183.573891	6199.016531	0.174606	0.764300	0.235700	-0.000000	-0.000000	-0.000000
1.166250	0.003173	0.000978	-0.000000	-0.000000	-0.000000	259.178640	5183.573941	5183.573933	6199.016547	0.174606	0.764300	0.235700	-0.000000	-0.000000	-0.000000
1.173750	0.003173	0.000978	-0.000000	0.000000	-0.000000	259.178639	5183.573974	5183.573966	6199.016562	0.174606	0.764300	0.235700	-0.000000	0.000000	-0.000000
1.181250	0.003173	0.000978	-0.000000	0.000000	-0.000000	259.178637	5183.573998	5183.573990	6199.016578	0.174606	0.764300	0.235700	-0.000000	0.000000	-0.000000
1.188750	0.003173	0.000978	-0.000000	0.000000	-0.000000	259.178636	5183.574011	5183.574004	6199.016593	0.174606	0.764300	0.235700	-0.000000	0.000000	-0.000000
1.196250	0.003173	0.000978	-0.000000	0.000000	-0.000000	259.178634	5183.574015	5183.574008	6199.016607	0.174606	0.764300	0.235700	-0.000000	0.000000	-0.000000
1.203750	0.003173	0.000978	-0.000000	0.000000	-0.000000	259.178632	5183.574009	5183.574002	6199.016621	0.174606	0.764300	0.235700	-0.000000	0.000000	-0.000000
1.211250	0.003173	0.000978	-0.000000	0.000000	-0.000000	259.178631	5183.573993	5183.573985	6199.016635	0.174606	0.764300	0.235700	-0.000000	0.000000	-0.000000
1.218750	0.003173	0.000978	-0.000000	0.000000	-0.000000	259.178629	5183.573966	5183.573959	6199.016648	0.174606	0.764300	0.235700	-0.000000	0.000000	-0.000000
1.226250	0.003173	0.000978	-0.000000	-0.000000	-0.000000	259.178628	5183.573929	5183.573922	6199.016661	0.174606	0.764300	0.235700	-0.000000	-0.000000	-0.000000
1.233750	0.003173	0.000978	-0.000000	-0.000000	-0.000000	259.178626	5183.573882	5183.573875	6199.016673	0.174606	0.764300	0.235700	-0.000000	-0.000000	-0.000000
1.241250	0.003173	0.000978	-0.000000	-0.000000	-0.000000	259.178625	5183.573826	5183.573819	6199.016685	0.174606	0.764300	0.235700	-0.000000	-0.000000	-0.000000
1.248750	0.003173	0.000978	-0.000000	-0.000000	-0.000000	259.178623	5183.573761	5183.573754	6199.016696	0.174606	0.764300	0.235700	-0.000000	-0.000000	-0.000000
1.256250	0.003173	0.000978	-0.000000	-0.000000	-0.000000	259.178622	5183.573687	5183.573679	6199.016707	0.174606	0.764300	0.235700	-0.000000	-0.000000	-0.000000
1.263750	0.003173	0.000978	-0.000000	-0.000000	-0.000000	259.178620	5183.573604	5183.573597	6199.016718	0.174606	0.764300	0.235700	-0.000000	-0.000000	-0.000000
1.271250	0.003173	0.000978	-0.000000	-0.000000	-0.000000	259.178619	5183.573514	5183.573507	6199.016728	0.174606	0.764300	0.235700	-0.000000	-0.000000	-0.000000
1.278750	0.003173	0.000978	-0.000000	-0.000000	-0.000000	259.178617	5183.573417	5183.573411	6199.016737	0.174606	0.764300	0.235700	-0.000000	-0.000000	-0.000000
1.286250	0.003173	0.000978	-0.000000	-0.000000	-0.000000	259.178616	5183.573314	5183.573308	6199.016747	0.174606	0.764300	0.235700	-0.000000	-0.000000	-0.000000
1.293750	0.003173	0.000978	-0.000000	0.000000	-0.000000	259.178614	5183.573206	5183.573200	6199.016756	0.174606	0.764300	0.235700	-0.000000	0.000000	-0.000000
1.301250	0.003173	0.000978	-0.000000	-0.000000	-0.000000	259.178613	5183.573094	5183.573087	6199.016764	0.174606	0.764300	0.235700	-0.000000	-0.000000	-0.000000
1.308750	0.003173	0.000978	-0.000000	-0.000000	-0.000000	259.178612	5183.572978	5183.572971	6199.016773	0.174606	0.764300	0.235700	-0.000000	-0.000000	-0.000000
1.316250	0.003173	0.000978	-0.000000	-0.000000	-0.000000	259.178610	5183.572859	5183.572853	6199.016781	0.174606	0.764300	0.235700	-0.000000	-0.000000	-0.000000
1.323750	0.003173	0.000978	-0.000000	-0.000000	-0.000000	259.178609	5183.572740	5183.572733	6199.016789	0.174606	0.764300	0.235700	-0.000000	-0.000000	-0.000000
1.331250	0.003173	0.000978	-0.000000	-0.000000	-0.000000	259.178608	5183.572620	5183.572613	6199.016797	0.174606	0.764300	0.235700	-0.000000	-0.000000	-0.000000
1.338750	0.003173	0.000978	-0.000000	-0.000000	-0.000000	259.178606	5183.572500	5183.572494	6199.016805	0.174606	0.764300	0.235700	-0.000000	-0.000000	-0.000000
1.346250	0.003173	0.000978	0.000000	-0.000000	-0.000000	259.178605	5183.572382	5183.572376	6199.016813	0.174606	0.764300	0.235700	0.000000	-0.000000	-0.000000
1.353750	0.003173	0.000978	0.000000	-0.000000	-0.000000	259.178604	5183.572268	5183.572262	6199.016821	0.174606	0.764300	0.235700	0.000000	-0.000000	-0.000000
1.361250	0.003173	0.000978	0.000000	-0.000000	-0.000000	259.178603	5183.572157	5183.572151	6199.016828	0.174606	0.764300	0.235700	0.000000	-0.000000	-0.000000
1.368750	0.003173	0.000978	0.000000	-0.000000	-0.000000	259.178601	5183.572051	5183.572045	6199.016837	0.174606	0.764300	0.235700	0.000000	-0.000000	-0.000000
1.376250	0.003173	0.000978	0.000000	-0.000000	-0.000000	259.178600	5183.571951	5183.571945	6199.016845	0.174606	0.764300	0.235700	0.000000	-0.000000	-0.000000
1.383750	0.003173	0.000978	0.000000	-0.000000	-0.000000	259.178599	5183.571857	5183.571852	6199.016853	0.174606	0.764300	0.235700	0.000000	-0.000000	-0.000000
1.391250	0.003173	0.000978	0.000000	-0.000000	-0.000000	259.178598	5183.571772	5183.571767	6199.016862	0.174606	0.764300	0.235700	0.000000	-0.000000	-0.000000
1.398750	0.003173	0.000978	0.000000	-0.000000	-0.000000	259.178597	5183.571696	5183.571691	6199.016871	0.174606	0.764300	0.235700	0.000000	-0.000000	-0.000000
1.406250	0.003173	0.000978	0.000000	-0.000000	-0.000000	259.178596	5183.571629	5183.571624	6199.016881	0.174606	0.764300	0.235700	0.000000	-0.000000	-0.000000
1.413750	0.003173	0.000978	0.000000	-0.000000	-0.000000	259.178595	5183.571572	5183.571567	6199.016890	0.174606	0.764300	0.235700	0.000000	-0.000000	-0.000000
1.421250	0.003173	0.000978	0.000000	-0.000000	-0.000000	259.178594	5183.571526	5183.571521	6199.016901	0.174606	0.764300	0.235700	0.000000	-0.000000	-0.000000