TITLE = "title"
VARIABLES = "X","rhoN2","rhoO2","rhoNO","rhoN","rhoO","u","T","Tv","P","M","YN2","YO2","YNO","YN","YO"
ZONE I=200, DATAPACKING=POINT
0.003750	0.000242	0.000075	0.000000	0.000000	0.000000	3499.483113	345.699422	351.258658	31.551203	9.416015	0.764300	0.235700	0.000000	0.000000	0.000000
0.011250	0.000250	0.000077	0.000000	-0.000000	0.000000	3498.252488	349.869151	351.258658	32.915542	9.356446	0.764300	0.235700	0.000000	-0.000000	0.000000
0.018750	0.000257	0.000079	-0.000000	0.000000	0.000000	3497.006912	354.088016	351.258658	34.338431	9.297227	0.764300	0.235700	-0.000000	0.000000	0.000000
0.026250	0.000265	0.000082	0.000000	0.000000	0.000000	3495.746258	358.356288	351.258658	35.822067	9.238361	0.764300	0.235700	0.000000	0.000000	0.000000
0.033750	0.000273	0.000084	-0.000000	-0.000000	0.000000	3494.469946	362.675593	351.258658	37.368839	9.179831	0.764300	0.235700	-0.000000	-0.000000	0.000000
0.041250	0.000282	0.000087	0.000000	-0.000000	0.000000	3493.176541	367.050106	351.258659	38.981478	9.121585	0.764300	0.235700	0.000000	-0.000000	0.000000
0.048750	0.000290	0.000090	-0.000000	0.000000	0.000000	3491.863439	371.487511	351.258659	40.663211	9.063532	0.764300	0.235700	-0.000000	0.000000	0.000000
0.056250	0.000299	0.000092	-0.000000	-0.000000	0.000000	3490.526903	375.998867	351.258660	42.417802	9.005542	0.764300	0.235700	-0.000000	-0.000000	0.000000
0.063750	0.000308	0.000095	-0.000000	-0.000000	0.000000	3489.162716	380.596661	351.258661	44.249382	8.947476	0.764300	0.235700	-0.000000	-0.000000	0.000000
0.071250	0.000318	0.000098	0.000000	-0.000000	0.000000	3487.767372	385.291226	351.258663	46.162019	8.889235	0.764300	0.235700	0.000000	-0.000000	0.000000
0.078750	0.000328	0.000101	-0.000000	0.000000	0.000000	3486.339411	390.086749	351.258665	48.159166	8.830800	0.764300	0.235700	-0.000000	0.000000	0.000000
0.086250	0.000337	0.000104	-0.000000	0.000000	0.000000	3484.880316	394.978572	351.258667	50.243179	8.772265	0.764300	0.235700	-0.000000	0.000000	0.000000
0.093750	0.000348	0.000107	0.000000	0.000000	0.000000	3483.394557	399.953086	351.258670	52.415118	8.713818	0.764300	0.235700	0.000000	0.000000	0.000000
0.101250	0.000358	0.000110	-0.000000	0.000000	0.000000	3481.888715	404.990342	351.258673	54.674917	8.655711	0.764300	0.235700	-0.000000	0.000000	0.000000
0.108750	0.000369	0.000114	-0.000000	0.000000	0.000000	3480.370067	410.068309	351.258678	57.021851	8.598200	0.764300	0.235700	-0.000000	0.000000	0.000000
0.116250	0.000380	0.000117	0.000000	-0.000000	0.000000	3478.845150	415.167163	351.258683	59.455099	8.541496	0.764300	0.235700	0.000000	-0.000000	0.000000
0.123750	0.000391	0.000121	-0.000000	-0.000000	0.000000	3477.318771	420.272230	351.258688	61.974218	8.485740	0.764300	0.235700	-0.000000	-0.000000	0.000000
0.131250	0.000403	0.000124	0.000000	-0.000000	0.000000	3475.793677	425.374992	351.258694	64.579378	8.430995	0.764300	0.235700	0.000000	-0.000000	0.000000
0.138750	0.000415	0.000128	0.000000	-0.000000	0.000000	3474.270785	430.472376	351.258699	67.271364	8.377262	0.764300	0.235700	0.000000	-0.000000	0.000000
0.146250	0.000427	0.000132	0.000000	-0.000000	0.000000	3472.749762	435.565025	351.258701	70.051380	8.324502	0.764300	0.235700	0.000000	-0.000000	0.000000
0.153750	0.000439	0.000135	0.000000	0.000000	0.000000	3471.229671	440.655354	351.258693	72.920780	8.272662	0.764300	0.235700	0.000000	0.000000	0.000000
0.161250	0.000452	0.000139	0.000000	0.000000	0.000000	3469.709520	445.745936	351.258663	75.880807	8.221688	0.764300	0.235700	0.000000	0.000000	0.000000
0.168750	0.000464	0.000143	0.000000	0.000000	0.000000	3468.188599	450.838468	351.258590	78.932382	8.171539	0.764300	0.235700	0.000000	0.000000	0.000000
0.176250	0.000478	0.000147	0.000000	0.000000	0.000000	3466.666644	455.933309	351.258433	82.075981	8.122190	0.764300	0.235700	0.000000	0.000000	0.000000
0.183750	0.000491	0.000151	0.000000	0.000000	0.000000	3465.143854	461.029414	351.258121	85.311560	8.073627	0.764300	0.235700	0.000000	0.000000	0.000000
0.191250	0.000505	0.000156	0.000000	0.000000	0.000000	3463.620833	466.124507	351.257540	88.638533	8.025852	0.764300	0.235700	0.000000	0.000000	0.000000
0.198750	0.000518	0.000160	0.000000	0.000000	0.000000	3462.098513	471.215329	351.256515	92.055768	7.978872	0.764300	0.235700	0.000000	0.000000	0.000000
0.206250	0.000532	0.000164	0.000000	0.000000	0.000000	3460.578065	476.297883	351.254782	95.561576	7.932702	0.764300	0.235700	0.000000	0.000000	0.000000
0.213750	0.000546	0.000169	0.000000	-0.000000	0.000000	3459.060843	481.367615	351.251973	99.153713	7.887359	0.764300	0.235700	0.000000	-0.000000	0.000000
0.221250	0.000561	0.000173	0.000000	-0.000000	0.000000	3457.548332	486.419560	351.247592	102.829366	7.842862	0.764300	0.235700	0.000000	-0.000000	0.000000
0.228750	0.000575	0.000177	0.000000	-0.000000	0.000000	3456.042125	491.448425	351.241003	106.585135	7.799233	0.764300	0.235700	0.000000	-0.000000	0.000000
0.236250	0.000590	0.000182	0.000000	-0.000000	0.000000	3454.543898	496.448647	351.231437	110.417009	7.756494	0.764300	0.235700	0.000000	-0.000000	0.000000
0.243750	0.000605	0.000187	0.000000	-0.000000	0.000000	3453.055404	501.414424	351.218013	114.320348	7.714664	0.764300	0.235700	0.000000	-0.000000	0.000000
0.251250	0.000620	0.000191	0.000000	0.000000	0.000000	3451.578464	506.339747	351.199781	118.289857	7.673768	0.764300	0.235700	0.000000	0.000000	0.000000
0.258750	0.000635	0.000196	-0.000000	-0.000000	0.000000	3450.114963	511.218412	351.175792	122.319568	7.633826	0.764300	0.235700	-0.000000	-0.000000	0.000000
0.266250	0.000650	0.000200	-0.000000	-0.000000	0.000000	3448.666840	516.044045	351.145185	126.402825	7.594861	0.764300	0.235700	-0.000000	-0.000000	0.000000
0.273750	0.000665	0.000205	-0.000000	-0.000000	0.000000	3447.236093	520.810125	351.107286	130.532271	7.556893	0.764300	0.235700	-0.000000	-0.000000	0.000000
0.281250	0.000680	0.000210	0.000000	-0.000000	0.000000	3445.824765	525.510013	351.061704	134.699848	7.519945	0.764300	0.235700	0.000000	-0.000000	0.000000
0.288750	0.000695	0.000214	0.000000	-0.000000	0.000000	3444.434943	530.136985	351.008418	138.896796	7.484037	0.764300	0.235700	0.000000	-0.000000	0.000000
0.296250	0.000710	0.000219	-0.000000	-0.000000	0.000000	3443.068751	534.684281	350.947821	143.113672	7.449189	0.764300	0.235700	-0.000000	-0.000000	0.000000
0.303750	0.000725	0.000224	-0.000000	-0.000000	0.000000	3441.728341	539.145157	350.880746	147.340370	7.415420	0.764300	0.235700	-0.000000	-0.000000	0.000000
0.311250	0.000740	0.000228	0.000000	-0.000000	0.000000	3440.415888	543.512955	350.808430	151.566159	7.382747	0.764300	0.235700	0.000000	-0.000000	0.000000
0.318750	0.000754	0.000233	-0.000000	-0.000000	0.000000	3439.133579	547.781170	350.732439	155.779726	7.351187	0.764300	0.235700	-0.000000	-0.000000	0.000000
0.326250	0.000769	0.000237	-0.000000	-0.000000	0.000000	3437.883602	551.943540	350.654570	159.969239	7.320753	0.764300	0.235700	-0.000000	-0.000000	0.000000
0.333750	0.000783	0.000242	0.000000	0.000000	0.000000	3436.668141	555.994125	350.576710	164.122414	7.291457	0.764300	0.235700	0.000000	0.000000	0.000000
0.341250	0.000797	0.000246	-0.000000	-0.000000	0.000000	3435.489360	559.927390	350.500707	168.226592	7.263307	0.764300	0.235700	-0.000000	-0.000000	0.000000
0.348750	0.000811	0.000250	-0.000000	-0.000000	0.000000	3434.349395	563.738273	350.428240	172.268828	7.236311	0.764300	0.235700	-0.000000	-0.000000	0.000000
0.356250	0.000824	0.000254	0.000000	-0.000000	0.000000	3433.250344	567.422231	350.360718	176.235970	7.210470	0.764300	0.235700	0.000000	-0.000000	0.000000
0.363750	0.000837	0.000258	0.000000	0.000000	0.000000	3432.194259	570.975250	350.299206	180.114745	7.185784	0.764300	0.235700	0.000000	0.000000	0.000000
0.371250	0.000849	0.000262	-0.000000	0.000000	0.000000	3431.183132	574.393819	350.244398	183.891836	7.162252	0.764300	0.235700	-0.000000	0.000000	0.000000
0.378750	0.000861	0.000266	-0.000000	0.000000	0.000000	3430.218897	577.674851	350.196612	187.553941	7.139868	0.764300	0.235700	-0.000000	0.000000	0.000000
0.386250	0.000873	0.000269	-0.000000	0.000000	0.000000	3429.303414	580.815562	350.155831	191.087829	7.118629	0.764300	0.235700	-0.000000	0.000000	0.000000
0.393750	0.000884	0.000273	0.000000	-0.000000	0.000000	3428.438473	583.813292	350.121753	194.480371	7.098528	0.764300	0.235700	0.000000	-0.000000	0.000000
0.401250	0.000894	0.000276	-0.000000	-0.000000	0.000000	3427.625788	586.665308	350.093861	197.718567	7.079562	0.764300	0.235700	-0.000000	-0.000000	0.000000
0.408750	0.000904	0.000279	-0.000000	0.000000	0.000000	3426.866995	589.368577	350.071499	200.789560	7.061732	0.764300	0.235700	-0.000000	0.000000	0.000000
0.416250	0.000913	0.000282	-0.000000	0.000000	0.000000	3426.163648	591.919552	350.053933	203.680652	7.045040	0.764300	0.235700	-0.000000	0.000000	0.000000
0.423750	0.000921	0.000284	-0.000000	0.000000	0.000000	3425.517220	594.313983	350.040413	206.379330	7.029494	0.764300	0.235700	-0.000000	0.000000	0.000000
0.431250	0.000929	0.000286	-0.000000	0.000000	0.000000	3424.929097	596.546783	350.030221	208.873309	7.015109	0.764300	0.235700	-0.000000	0.000000	0.000000
0.438750	0.000936	0.000289	-0.000000	0.000000	0.000000	3424.400575	598.611970	350.022697	211.150596	7.001905	0.764300	0.235700	-0.000000	0.000000	0.000000
0.446250	0.000942	0.000290	-0.000000	-0.000000	0.000000	3423.932849	600.502692	350.017265	213.199591	6.989908	0.764300	0.235700	-0.000000	-0.000000	0.000000
0.453750	0.000947	0.000292	0.000000	-0.000000	0.000000	3423.527009	602.211350	350.013435	215.009222	6.979148	0.764300	0.235700	0.000000	-0.000000	0.000000
0.461250	0.000952	0.000293	-0.000000	0.000000	0.000000	3423.184025	603.729800	350.010804	216.569105	6.969660	0.764300	0.235700	-0.000000	0.000000	0.000000
0.468750	0.000955	0.000295	-0.000000	0.000000	0.000000	3422.904736	605.049639	350.009054	217.869730	6.961482	0.764300	0.235700	-0.000000	0.000000	0.000000
0.476250	0.000958	0.000295	-0.000000	0.000000	0.000000	3422.689837	606.162525	350.007937	218.902667	6.954649	0.764300	0.235700	-0.000000	0.000000	0.000000
0.483750	0.000960	0.000296	-0.000000	0.000000	0.000000	3422.539868	607.060535	350.007264	219.660765	6.949198	0.764300	0.235700	-0.000000	0.000000	0.000000
0.491250	0.000961	0.000296	-0.000000	-0.000000	0.000000	3422.455200	607.736503	350.006897	220.138342	6.945163	0.764300	0.235700	-0.000000	-0.000000	0.000000
0.498750	0.000961	0.000296	-0.000000	0.000000	0.000000	3422.436026	608.184324	350.006737	220.331348	6.942570	0.764300	0.235700	-0.000000	0.000000	0.000000
0.506250	0.000960	0.000296	0.000000	-0.000000	0.000000	3422.482358	608.399206	350.006712	220.237490	6.941444	0.764300	0.235700	0.000000	-0.000000	0.000000
0.513750	0.000959	0.000296	0.000000	0.000000	0.000000	3422.594020	608.377839	350.006773	219.856313	6.941799	0.764300	0.235700	0.000000	0.000000	0.000000
0.521250	0.000956	0.000295	0.000000	-0.000000	0.000000	3422.770648	608.118485	350.006888	219.189232	6.943646	0.764300	0.235700	0.000000	-0.000000	0.000000
0.528750	0.000953	0.000294	0.000000	0.000000	0.000000	3423.011697	607.620989	350.007034	218.239509	6.946986	0.764300	0.235700	0.000000	0.000000	0.000000
0.536250	0.000949	0.000293	0.000000	0.000000	0.000000	3423.316444	606.886709	350.007196	217.012192	6.951815	0.764300	0.235700	0.000000	0.000000	0.000000
0.543750	0.000944	0.000291	0.000000	-0.000000	0.000000	3423.684000	605.918391	350.007364	215.514010	6.958124	0.764300	0.235700	0.000000	-0.000000	0.000000
0.551250	0.000938	0.000289	0.000000	0.000000	0.000000	3424.113320	604.719999	350.007533	213.753239	6.965898	0.764300	0.235700	0.000000	0.000000	0.000000
0.558750	0.000931	0.000287	-0.000000	0.000000	0.000000	3424.603216	603.296514	350.007697	211.739544	6.975117	0.764300	0.235700	-0.000000	0.000000	0.000000
0.566250	0.000924	0.000285	-0.000000	-0.000000	0.000000	3425.152371	601.653735	350.007855	209.483808	6.985761	0.764300	0.235700	-0.000000	-0.000000	0.000000
0.573750	0.000916	0.000282	-0.000000	-0.000000	0.000000	3425.759352	599.798066	350.008004	206.997962	6.997806	0.764300	0.235700	-0.000000	-0.000000	0.000000
0.581250	0.000907	0.000280	-0.000000	-0.000000	0.000000	3426.422626	597.736344	350.008143	204.294806	7.011229	0.764300	0.235700	-0.000000	-0.000000	0.000000
0.588750	0.000897	0.000277	0.000000	0.000000	0.000000	3427.140570	595.475670	350.008270	201.387847	7.026003	0.764300	0.235700	0.000000	0.000000	0.000000
0.596250	0.000887	0.000274	0.000000	-0.000000	0.000000	3427.911484	593.023287	350.008387	198.291138	7.042105	0.764300	0.235700	0.000000	-0.000000	0.000000
0.603750	0.000876	0.000270	-0.000000	-0.000000	0.000000	3428.733605	590.386474	350.008490	195.019136	7.059511	0.764300	0.235700	-0.000000	-0.000000	0.000000
0.611250	0.000865	0.000267	-0.000000	-0.000000	0.000000	3429.605112	587.572481	350.008581	191.586565	7.078199	0.764300	0.235700	-0.000000	-0.000000	0.000000
0.618750	0.000853	0.000263	-0.000000	-0.000000	0.000000	3430.524138	584.588485	350.008658	188.008301	7.098148	0.764300	0.235700	-0.000000	-0.000000	0.000000
0.626250	0.000841	0.000259	-0.000000	-0.000000	0.000000	3431.488778	581.441570	350.008722	184.299259	7.119337	0.764300	0.235700	-0.000000	-0.000000	0.000000
0.633750	0.000828	0.000255	0.000000	-0.000000	0.000000	3432.497090	578.138721	350.008771	180.474293	7.141747	0.764300	0.235700	0.000000	-0.000000	0.000000
0.641250	0.000815	0.000251	0.000000	-0.000000	0.000000	3433.547110	574.686839	350.008806	176.548114	7.165360	0.764300	0.235700	0.000000	-0.000000	0.000000
0.648750	0.000802	0.000247	-0.000000	0.000000	0.000000	3434.636847	571.092756	350.008826	172.535203	7.190158	0.764300	0.235700	-0.000000	0.000000	0.000000
0.656250	0.000788	0.000243	0.000000	0.000000	0.000000	3435.764293	567.363262	350.008832	168.449741	7.216125	0.764300	0.235700	0.000000	0.000000	0.000000
0.663750	0.000774	0.000239	0.000000	0.000000	0.000000	3436.927426	563.505130	350.008824	164.305544	7.243243	0.764300	0.235700	0.000000	0.000000	0.000000
0.671250	0.000759	0.000234	0.000000	0.000000	0.000000	3438.124211	559.525137	350.008801	160.116002	7.271496	0.764300	0.235700	0.000000	0.000000	0.000000
0.678750	0.000745	0.000230	0.000000	0.000000	0.000000	3439.352608	555.430086	350.008763	155.894030	7.300866	0.764300	0.235700	0.000000	0.000000	0.000000
0.686250	0.000730	0.000225	0.000000	0.000000	0.000000	3440.610571	551.226820	350.008712	151.652014	7.331335	0.764300	0.235700	0.000000	0.000000	0.000000
0.693750	0.000715	0.000221	-0.000000	0.000000	0.000000	3441.896055	546.922230	350.008647	147.401775	7.362886	0.764300	0.235700	-0.000000	0.000000	0.000000
0.701250	0.000700	0.000216	-0.000000	0.000000	0.000000	3443.207021	542.523254	350.008569	143.154529	7.395499	0.764300	0.235700	-0.000000	0.000000	0.000000
0.708750	0.000685	0.000211	-0.000000	-0.000000	0.000000	3444.541440	538.036872	350.008478	138.920861	7.429153	0.764300	0.235700	-0.000000	-0.000000	0.000000
0.716250	0.000670	0.000207	-0.000000	-0.000000	0.000000	3445.897297	533.470090	350.008375	134.710693	7.463827	0.764300	0.235700	-0.000000	-0.000000	0.000000
0.723750	0.000655	0.000202	-0.000000	-0.000000	0.000000	3447.272602	528.829917	350.008260	130.533273	7.499499	0.764300	0.235700	-0.000000	-0.000000	0.000000
0.731250	0.000640	0.000197	-0.000000	-0.000000	0.000000	3448.665393	524.123345	350.008134	126.397156	7.536145	0.764300	0.235700	-0.000000	-0.000000	0.000000
0.738750	0.000625	0.000193	-0.000000	0.000000	0.000000	3450.073743	519.357311	350.007998	122.310199	7.573742	0.764300	0.235700	-0.000000	0.000000	0.000000
0.746250	0.000610	0.000188	0.000000	-0.000000	0.000000	3451.495766	514.538666	350.007851	118.279557	7.612264	0.764300	0.235700	0.000000	-0.000000	0.000000
0.753750	0.000595	0.000184	0.000000	-0.000000	0.000000	3452.929627	509.674142	350.007696	114.311693	7.651687	0.764300	0.235700	0.000000	-0.000000	0.000000
0.761250	0.000580	0.000179	-0.000000	-0.000000	0.000000	3454.373546	504.770316	350.007532	110.412381	7.691984	0.764300	0.235700	-0.000000	-0.000000	0.000000
0.768750	0.000566	0.000174	0.000000	-0.000000	0.000000	3455.825802	499.833576	350.007361	106.586725	7.733129	0.764300	0.235700	0.000000	-0.000000	0.000000
0.776250	0.000551	0.000170	0.000000	-0.000000	0.000000	3457.284742	494.870097	350.007182	102.839176	7.775096	0.764300	0.235700	0.000000	-0.000000	0.000000
0.783750	0.000537	0.000166	0.000000	-0.000000	0.000000	3458.748781	489.885811	350.006998	99.173561	7.817860	0.764300	0.235700	0.000000	-0.000000	0.000000
0.791250	0.000523	0.000161	0.000000	-0.000000	0.000000	3460.216407	484.886390	350.006808	95.593103	7.861395	0.764300	0.235700	0.000000	-0.000000	0.000000
0.798750	0.000509	0.000157	0.000000	-0.000000	0.000000	3461.686184	479.877232	350.006613	92.100460	7.905676	0.764300	0.235700	0.000000	-0.000000	0.000000
0.806250	0.000496	0.000153	0.000000	-0.000000	0.000000	3463.156749	474.863451	350.006414	88.697750	7.950678	0.764300	0.235700	0.000000	-0.000000	0.000000
0.813750	0.000482	0.000149	0.000000	-0.000000	0.000000	3464.626819	469.849876	350.006211	85.386594	7.996377	0.764300	0.235700	0.000000	-0.000000	0.000000
0.821250	0.000469	0.000145	0.000000	-0.000000	0.000000	3466.095181	464.841049	350.006006	82.168145	8.042749	0.764300	0.235700	0.000000	-0.000000	0.000000
0.828750	0.000456	0.000141	-0.000000	-0.000000	0.000000	3467.560700	459.841232	350.005799	79.043127	8.089772	0.764300	0.235700	-0.000000	-0.000000	0.000000
0.836250	0.000443	0.000137	-0.000000	0.000000	0.000000	3469.022309	454.854417	350.005591	76.011872	8.137424	0.764300	0.235700	-0.000000	0.000000	0.000000
0.843750	0.000431	0.000133	0.000000	0.000000	0.000000	3470.405018	450.104336	350.005381	73.112864	8.183480	0.764300	0.235700	0.000000	0.000000	0.000000
0.851250	0.000450	0.000139	0.000000	0.000000	0.000000	3297.593945	1072.653239	291.294318	183.236119	4.868850	0.763637	0.235496	0.000000	0.000000	0.000000
0.858750	0.001265	0.000390	0.000000	0.000000	0.000000	1394.881537	5438.909421	1538.799356	2602.625895	0.917023	0.762261	0.235021	0.000001	0.000000	0.000049
0.866250	0.001892	0.000582	0.000000	0.000000	0.000001	881.129519	5627.378157	2585.248469	4014.896740	0.569633	0.763993	0.235196	0.000010	0.000000	0.000405
0.873750	0.002053	0.000628	0.000000	0.000000	0.000005	802.029100	5330.133919	3260.508877	4131.876704	0.532359	0.763999	0.233875	0.000079	0.000002	0.001702
0.881250	0.002188	0.000663	0.000001	0.000000	0.000012	743.004786	5081.570932	3689.411091	4207.204423	0.504420	0.763913	0.231398	0.000316	0.000007	0.004062
0.888750	0.002305	0.000688	0.000002	0.000000	0.000022	695.687093	4868.370870	3956.729300	4260.573126	0.481670	0.763690	0.227998	0.000820	0.000013	0.007199
0.896250	0.002410	0.000708	0.000005	0.000000	0.000034	656.098198	4684.466947	4116.007785	4301.540859	0.462186	0.763331	0.224124	0.001602	0.000021	0.010660
0.903750	0.002505	0.000723	0.000008	0.000000	0.000046	622.112173	4526.540062	4202.257326	4334.996456	0.444994	0.762891	0.220310	0.002557	0.000027	0.013968
0.911250	0.002591	0.000738	0.000012	0.000000	0.000057	592.407800	4391.882427	4238.084598	4363.616048	0.429539	0.762463	0.217105	0.003487	0.000031	0.016681
0.918750	0.002670	0.000753	0.000015	0.000000	0.000065	566.049591	4277.643223	4237.627658	4389.007136	0.415467	0.762150	0.215000	0.004174	0.000032	0.018423
0.926250	0.002745	0.000772	0.000016	0.000000	0.000068	542.340214	4180.439336	4209.389911	4412.131312	0.402549	0.762027	0.214322	0.004454	0.000030	0.018953
0.933750	0.002817	0.000795	0.000016	0.000000	0.000067	520.762525	4096.154675	4158.598941	4433.461033	0.390651	0.762112	0.215136	0.004281	0.000026	0.018232
0.941250	0.002889	0.000823	0.000014	0.000000	0.000062	500.939456	4020.203750	4089.280153	4453.119191	0.379697	0.762368	0.217206	0.003736	0.000020	0.016450
0.948750	0.002961	0.000854	0.000012	0.000000	0.000054	482.591428	3948.438278	4005.870673	4471.098347	0.369616	0.762717	0.220072	0.002985	0.000015	0.013983
0.956250	0.003035	0.000888	0.000009	0.000000	0.000045	465.495037	3878.364545	3914.061133	4487.519407	0.360280	0.763080	0.223193	0.002203	0.000010	0.011276
0.963750	0.003108	0.000921	0.000006	0.000000	0.000036	449.454963	3809.913724	3820.667680	4502.799030	0.351484	0.763401	0.226113	0.001521	0.000006	0.008720
0.971250	0.003179	0.000952	0.000004	0.000000	0.000027	434.295248	3745.181876	3732.662155	4517.620052	0.342966	0.763656	0.228548	0.000997	0.000004	0.006567
0.978750	0.003246	0.000979	0.000003	0.000000	0.000021	419.864283	3687.257945	3655.854169	4532.725151	0.334472	0.763845	0.230397	0.000634	0.000003	0.004916
0.986250	0.003304	0.001002	0.000002	0.000000	0.000016	406.042904	3638.830928	3593.848376	4548.672368	0.325816	0.763979	0.231694	0.000403	0.000002	0.003751
0.993750	0.003354	0.001021	0.000001	0.000000	0.000013	392.704980	3601.183565	3547.603480	4565.269600	0.316886	0.764072	0.232540	0.000266	0.000001	0.002987
1.001250	0.003411	0.001040	0.000001	0.000000	0.000011	382.166183	3573.421961	3516.102957	4605.541858	0.309652	0.764135	0.233049	0.000190	0.000001	0.002526
1.008750	0.003443	0.001051	0.000001	0.000000	0.000010	379.181693	3552.488365	3496.154024	4620.945864	0.308177	0.764177	0.233335	0.000151	0.000001	0.002268
1.016250	0.003457	0.001056	0.000001	0.000000	0.000010	379.175048	3538.150919	3484.310854	4619.463164	0.308815	0.764205	0.233485	0.000133	0.000001	0.002135
1.023750	0.003465	0.001059	0.000001	0.000000	0.000009	379.073514	3529.384544	3477.743425	4619.033280	0.309124	0.764222	0.233557	0.000124	0.000001	0.002071
1.031250	0.003470	0.001061	0.000001	0.000000	0.000009	378.934718	3524.262690	3474.265442	4618.898148	0.309238	0.764234	0.233589	0.000121	0.000001	0.002044
1.038750	0.003473	0.001062	0.000001	0.000000	0.000009	378.746013	3521.431757	3472.404278	4618.828110	0.309209	0.764241	0.233602	0.000120	0.000001	0.002034
1.046250	0.003474	0.001062	0.000001	0.000000	0.000009	378.498781	3519.993512	3471.254344	4618.659017	0.309071	0.764247	0.233608	0.000120	0.000001	0.002029
1.053750	0.003475	0.001062	0.000001	0.000000	0.000009	378.185852	3519.385961	3470.306396	4618.287294	0.308842	0.764251	0.233614	0.000119	0.000001	0.002025
1.061250	0.003474	0.001062	0.000001	0.000000	0.000009	377.801324	3519.273018	3469.303947	4617.651689	0.308534	0.764255	0.233622	0.000119	0.000001	0.002018
1.068750	0.003474	0.001062	0.000001	0.000000	0.000009	377.340456	3519.459879	3468.140066	4616.718063	0.308151	0.764258	0.233633	0.000118	0.000001	0.002008
1.076250	0.003472	0.001062	0.000001	0.000000	0.000009	376.799474	3519.834592	3466.789400	4615.467843	0.307695	0.764262	0.233648	0.000117	0.000001	0.001995
1.083750	0.003471	0.001061	0.000001	0.000000	0.000009	376.175225	3520.330653	3465.265628	4613.889507	0.307166	0.764265	0.233664	0.000115	0.000001	0.001981
1.091250	0.003469	0.001061	0.000001	0.000000	0.000009	375.464655	3520.904700	3463.596145	4611.972230	0.306564	0.764269	0.233682	0.000113	0.000001	0.001964
1.098750	0.003466	0.001060	0.000001	0.000000	0.000009	374.664146	3521.524288	3461.808342	4609.701002	0.305887	0.764273	0.233702	0.000112	0.000001	0.001947
1.106250	0.003464	0.001059	0.000000	0.000000	0.000009	373.768759	3522.161781	3459.923608	4607.052770	0.305131	0.764277	0.233722	0.000110	0.000001	0.001929
1.113750	0.003461	0.001059	0.000000	0.000000	0.000009	372.771441	3522.791517	3457.956118	4603.993382	0.304293	0.764281	0.233742	0.000108	0.000001	0.001911
1.121250	0.003458	0.001058	0.000000	0.000000	0.000009	371.662276	3523.388422	3455.914134	4600.475338	0.303365	0.764285	0.233761	0.000107	0.000001	0.001893
1.128750	0.003454	0.001057	0.000000	0.000000	0.000008	370.427813	3523.927142	3453.802189	4596.436556	0.302338	0.764290	0.233781	0.000105	0.000001	0.001875
1.136250	0.003451	0.001056	0.000000	0.000000	0.000008	369.050492	3524.381437	3451.623218	4591.800654	0.301197	0.764295	0.233801	0.000103	0.000001	0.001858
1.143750	0.003446	0.001054	0.000000	0.000000	0.000008	367.508109	3524.724033	3449.380243	4586.479521	0.299927	0.764301	0.233820	0.000102	0.000001	0.001841
1.151250	0.003442	0.001053	0.000000	0.000000	0.000008	365.773198	3524.927327	3447.077573	4580.379515	0.298506	0.764308	0.233839	0.000100	0.000001	0.001825
1.158750	0.003436	0.001051	0.000000	0.000000	0.000008	363.812013	3524.965629	3444.721674	4573.413395	0.296907	0.764315	0.233858	0.000099	0.000001	0.001809
1.166250	0.003431	0.001050	0.000000	0.000000	0.000008	361.582576	3524.819901	3442.321920	4565.521598	0.295096	0.764324	0.233876	0.000098	0.000001	0.001793
1.173750	0.003425	0.001048	0.000000	0.000000	0.000008	359.030713	3524.486620	3439.891454	4556.708933	0.293031	0.764335	0.233895	0.000096	0.000001	0.001779
1.181250	0.003418	0.001046	0.000000	0.000000	0.000008	356.082219	3523.993511	3437.448429	4547.107135	0.290648	0.764347	0.233913	0.000095	0.000001	0.001764
1.188750	0.003411	0.001044	0.000000	0.000000	0.000008	352.627815	3523.426842	3435.018067	4537.081150	0.287855	0.764363	0.233932	0.000094	0.000001	0.001751
1.196250	0.003404	0.001042	0.000000	0.000000	0.000008	348.495286	3522.978079	3432.636218	4527.409158	0.284503	0.764383	0.233951	0.000093	0.000001	0.001739
1.203750	0.003399	0.001040	0.000000	0.000000	0.000008	343.399859	3523.022017	3430.355647	4519.584456	0.280346	0.764412	0.233972	0.000092	0.000001	0.001727
1.211250	0.003395	0.001039	0.000000	0.000000	0.000008	336.860045	3524.241327	3428.256819	4516.304491	0.274965	0.764453	0.233995	0.000091	0.000001	0.001717
1.218750	0.003397	0.001040	0.000000	0.000000	0.000008	328.073596	3527.797996	3426.466601	4522.170238	0.267664	0.764516	0.234023	0.000091	0.000001	0.001708
1.226250	0.003407	0.001043	0.000000	0.000000	0.000008	315.788108	3535.506774	3425.193601	4544.500666	0.257368	0.764612	0.234059	0.000090	0.000001	0.001702
1.233750	0.003431	0.001050	0.000000	0.000000	0.000008	298.243906	3549.841303	3424.775835	4593.772101	0.242589	0.764752	0.234105	0.000090	0.000001	0.001700
1.241250	0.003475	0.001064	0.000000	0.000000	0.000008	273.489045	3573.335969	3425.745580	4682.246971	0.221733	0.764933	0.234157	0.000090	0.000001	0.001703
1.248750	0.003544	0.001085	0.000000	0.000000	0.000008	240.389969	3606.948218	3428.869019	4818.779068	0.193995	0.765125	0.234204	0.000091	0.000001	0.001716
1.256250	0.003637	0.001113	0.000000	0.000000	0.000008	200.105299	3647.983059	3435.060468	5000.152321	0.160576	0.765266	0.234221	0.000093	0.000001	0.001740
1.263750	0.003743	0.001146	0.000000	0.000000	0.000009	156.630852	3689.878689	3445.069075	5205.677085	0.124970	0.765298	0.234189	0.000096	0.000001	0.001782
1.271250	0.003848	0.001177	0.000001	0.000000	0.000009	115.184299	3725.240125	3459.041412	5403.871269	0.091457	0.765217	0.234100	0.000101	0.000001	0.001843
1.278750	0.003938	0.001204	0.000001	0.000000	0.000010	79.595420	3749.584236	3476.311623	5568.532577	0.062987	0.765069	0.233969	0.000108	0.000001	0.001927
1.286250	0.004009	0.001225	0.000001	0.000000	0.000011	51.057223	3762.486818	3495.631145	5689.777941	0.040330	0.764913	0.233813	0.000117	0.000001	0.002031
1.293750	0.004061	0.001241	0.000001	0.000000	0.000011	28.754108	3766.194744	3515.642498	5772.342316	0.022699	0.764782	0.233645	0.000128	0.000001	0.002154
1.301250	0.004101	0.001252	0.000001	0.000000	0.000012	11.139764	3763.697354	3535.262574	5827.153145	0.008796	0.764684	0.233469	0.000142	0.000001	0.002294
1.308750	0.004133	0.001261	0.000001	0.000000	0.000013	-3.204150	3757.499165	3553.855336	5864.446302	-0.002532	0.764610	0.233284	0.000158	0.000001	0.002451
1.316250	0.004160	0.001268	0.000001	0.000000	0.000014	-15.283854	3749.750827	3570.582234	5891.398272	-0.012088	0.764551	0.233094	0.000176	0.000001	0.002615
1.323750	0.004184	0.001274	0.000001	0.000000	0.000015	-25.808148	3741.677977	3585.354607	5913.679830	-0.020432	0.764503	0.232901	0.000196	0.000001	0.002786
1.331250	0.004206	0.001280	0.000001	0.000000	0.000016	-35.113068	3733.633640	3598.453186	5933.652987	-0.027825	0.764460	0.232702	0.000218	0.000002	0.002963
1.338750	0.004227	0.001286	0.000001	0.000000	0.000017	-43.375707	3725.742374	3610.062659	5952.201531	-0.034406	0.764419	0.232496	0.000242	0.000002	0.003147
1.346250	0.004247	0.001291	0.000001	0.000000	0.000019	-50.728993	3718.061605	3620.308507	5969.726497	-0.040275	0.764382	0.232283	0.000269	0.000002	0.003338
1.353750	0.004267	0.001295	0.000002	0.000000	0.000020	-57.286660	3710.615199	3629.291669	5986.411649	-0.045522	0.764346	0.232064	0.000298	0.000002	0.003534
1.361250	0.004285	0.001300	0.000002	0.000000	0.000021	-63.149972	3703.408119	3637.102788	6002.333652	-0.050224	0.764312	0.231839	0.000330	0.000002	0.003737
1.368750	0.004303	0.001304	0.000002	0.000000	0.000022	-68.409274	3696.435212	3643.827699	6017.519351	-0.054452	0.764279	0.231607	0.000365	0.000002	0.003945
1.376250	0.004320	0.001308	0.000002	0.000000	0.000024	-73.144250	3689.686764	3649.549437	6031.976928	-0.058267	0.764247	0.231370	0.000402	0.000002	0.004157
1.383750	0.004337	0.001312	0.000003	0.000000	0.000025	-77.424239	3683.151594	3654.348939	6045.712353	-0.061723	0.764216	0.231127	0.000443	0.000002	0.004375
1.391250	0.004353	0.001315	0.000003	0.000000	0.000026	-81.308925	3676.819012	3658.305047	6058.737052	-0.064868	0.764184	0.230879	0.000486	0.000002	0.004597
1.398750	0.004368	0.001318	0.000003	0.000000	0.000028	-84.849321	3670.679611	3661.494309	6071.070359	-0.067740	0.764153	0.230626	0.000533	0.000003	0.004823
1.406250	0.004382	0.001321	0.000003	0.000000	0.000029	-88.088896	3664.725706	3663.990784	6082.739085	-0.070375	0.764121	0.230366	0.000583	0.000003	0.005053
1.413750	0.004396	0.001324	0.000004	0.000000	0.000030	-91.064716	3658.951439	3665.865998	6093.775751	-0.072800	0.764089	0.230101	0.000636	0.000003	0.005287
1.421250	0.004409	0.001326	0.000004	0.000000	0.000032	-93.808474	3653.352865	3667.189160	6104.216497	-0.075041	0.764056	0.229830	0.000693	0.000003	0.005526
1.428750	0.004422	0.001328	0.000004	0.000000	0.000033	-96.347394	3647.928127	3668.027570	6114.099218	-0.077118	0.764022	0.229551	0.000754	0.000003	0.005771
1.436250	0.004434	0.001330	0.000005	0.000000	0.000035	-98.704962	3642.677658	3668.446834	6123.462150	-0.079051	0.763986	0.229264	0.000819	0.000003	0.006021