TITLE = "title"
VARIABLES = "X","rhoN2","rhoO2","rhoNO","rhoN","rhoO","u","T","Tv","P","M","YN2","YO2","YNO","YN","YO"
ZONE I=200, DATAPACKING=POINT
0.003750	0.006053	0.001867	-0.000000	0.000000	0.000000	3499.483114	345.699419	351.258656	788.780075	9.416015	0.764300	0.235700	-0.000000	0.000000	0.000000
0.011250	0.006240	0.001924	0.000000	-0.000000	0.000000	3498.252504	349.869105	351.258655	822.888429	9.356446	0.764300	0.235700	0.000000	-0.000000	0.000000
0.018750	0.006432	0.001984	0.000000	-0.000000	0.000000	3497.007026	354.087675	351.258656	858.459889	9.297232	0.764300	0.235700	0.000000	-0.000000	0.000000
0.026250	0.006630	0.002045	0.000000	-0.000000	0.000000	3495.746823	358.354590	351.258660	895.547181	9.238385	0.764300	0.235700	0.000000	-0.000000	0.000000
0.033750	0.006834	0.002108	0.000000	-0.000000	0.000000	3494.472068	362.669213	351.258668	934.203566	9.179918	0.764300	0.235700	0.000000	-0.000000	0.000000
0.041250	0.007044	0.002172	0.000000	0.000000	0.000000	3493.182963	367.030806	351.258679	974.482673	9.121844	0.764300	0.235700	0.000000	0.000000	0.000000
0.048750	0.007260	0.002239	0.000000	-0.000000	0.000000	3491.879742	371.438524	351.258695	1016.438294	9.064177	0.764300	0.235700	0.000000	-0.000000	0.000000
0.056250	0.007482	0.002307	0.000000	0.000000	0.000000	3490.562672	375.891407	351.258716	1060.124168	9.006931	0.764300	0.235700	0.000000	0.000000	0.000000
0.063750	0.007711	0.002378	0.000000	0.000000	0.000000	3489.232059	380.388377	351.258744	1105.593727	8.950119	0.764300	0.235700	0.000000	0.000000	0.000000
0.071250	0.007946	0.002450	0.000000	0.000000	0.000000	3487.888243	384.928226	351.258780	1152.899818	8.893757	0.764300	0.235700	0.000000	0.000000	0.000000
0.078750	0.008188	0.002525	0.000000	0.000000	0.000000	3486.531606	389.509616	351.258825	1202.094393	8.837859	0.764300	0.235700	0.000000	0.000000	0.000000
0.086250	0.008436	0.002602	0.000000	0.000000	0.000000	3485.162570	394.131069	351.258881	1253.228166	8.782442	0.764300	0.235700	0.000000	0.000000	0.000000
0.093750	0.008691	0.002680	0.000000	0.000000	0.000000	3483.781603	398.790960	351.258950	1306.350235	8.727520	0.764300	0.235700	0.000000	0.000000	0.000000
0.101250	0.008952	0.002761	0.000000	0.000000	0.000000	3482.389216	403.487515	351.259033	1361.507675	8.673110	0.764300	0.235700	0.000000	0.000000	0.000000
0.108750	0.009220	0.002843	0.000000	0.000000	0.000000	3480.985971	408.218797	351.259133	1418.745082	8.619228	0.764300	0.235700	0.000000	0.000000	0.000000
0.116250	0.009495	0.002928	0.000000	0.000000	0.000000	3479.572477	412.982707	351.259252	1478.104093	8.565891	0.764300	0.235700	0.000000	0.000000	0.000000
0.123750	0.009777	0.003015	0.000000	-0.000000	0.000000	3478.149397	417.776973	351.259394	1539.622859	8.513116	0.764300	0.235700	0.000000	-0.000000	0.000000
0.131250	0.010066	0.003104	0.000000	-0.000000	0.000000	3476.717445	422.599146	351.259561	1603.335486	8.460921	0.764300	0.235700	0.000000	-0.000000	0.000000
0.138750	0.010361	0.003195	0.000000	-0.000000	0.000000	3475.277394	427.446593	351.259756	1669.271429	8.409325	0.764300	0.235700	0.000000	-0.000000	0.000000
0.146250	0.010662	0.003288	0.000000	-0.000000	0.000000	3473.830071	432.316491	351.259983	1737.454859	8.358344	0.764300	0.235700	0.000000	-0.000000	0.000000
0.153750	0.010971	0.003383	0.000000	-0.000000	0.000000	3472.376367	437.205825	351.260247	1807.903991	8.307998	0.764300	0.235700	0.000000	-0.000000	0.000000
0.161250	0.011285	0.003480	0.000000	-0.000000	0.000000	3470.917227	442.111378	351.260551	1880.630370	8.258306	0.764300	0.235700	0.000000	-0.000000	0.000000
0.168750	0.011606	0.003579	0.000000	-0.000000	0.000000	3469.453665	447.029731	351.260901	1955.638139	8.209287	0.764300	0.235700	0.000000	-0.000000	0.000000
0.176250	0.011933	0.003680	0.000000	-0.000000	0.000000	3467.986755	451.957257	351.261302	2032.923269	8.160961	0.764300	0.235700	0.000000	-0.000000	0.000000
0.183750	0.012267	0.003783	0.000000	-0.000000	0.000000	3466.517634	456.890117	351.261758	2112.472770	8.113348	0.764300	0.235700	0.000000	-0.000000	0.000000
0.191250	0.012605	0.003887	0.000000	-0.000000	0.000000	3465.047509	461.824260	351.262277	2194.263886	8.066468	0.764300	0.235700	0.000000	-0.000000	0.000000
0.198750	0.012950	0.003993	0.000000	-0.000000	0.000000	3463.577650	466.755419	351.262863	2278.263272	8.020341	0.764300	0.235700	0.000000	-0.000000	0.000000
0.206250	0.013299	0.004101	0.000000	-0.000000	0.000000	3462.109394	471.679112	351.263525	2364.426176	7.974988	0.764300	0.235700	0.000000	-0.000000	0.000000
0.213750	0.013653	0.004211	0.000000	-0.000000	0.000000	3460.644145	476.590641	351.264268	2452.695621	7.930431	0.764300	0.235700	0.000000	-0.000000	0.000000
0.221250	0.014012	0.004321	0.000000	-0.000000	0.000000	3459.183373	481.485095	351.265099	2543.001600	7.886689	0.764300	0.235700	0.000000	-0.000000	0.000000
0.228750	0.014375	0.004433	0.000000	-0.000000	0.000000	3457.728615	486.357348	351.266026	2635.260302	7.843786	0.764300	0.235700	0.000000	-0.000000	0.000000
0.236250	0.014742	0.004546	0.000000	-0.000000	0.000000	3456.281470	491.202070	351.267056	2729.373372	7.801742	0.764300	0.235700	0.000000	-0.000000	0.000000
0.243750	0.015111	0.004660	0.000000	-0.000000	0.000000	3454.843604	496.013725	351.268198	2825.227226	7.760579	0.764300	0.235700	0.000000	-0.000000	0.000000
0.251250	0.015484	0.004775	0.000000	-0.000000	0.000000	3453.416740	500.786582	351.269457	2922.692425	7.720319	0.764300	0.235700	0.000000	-0.000000	0.000000
0.258750	0.015858	0.004890	0.000000	-0.000000	0.000000	3452.002664	505.514721	351.270842	3021.623139	7.680983	0.764300	0.235700	0.000000	-0.000000	0.000000
0.266250	0.016234	0.005006	0.000000	-0.000000	0.000000	3450.603217	510.192043	351.272361	3121.856696	7.642593	0.764300	0.235700	0.000000	-0.000000	0.000000
0.273750	0.016611	0.005122	0.000000	-0.000000	0.000000	3449.220293	514.812282	351.274020	3223.213251	7.605172	0.764300	0.235700	0.000000	-0.000000	0.000000
0.281250	0.016987	0.005239	0.000000	-0.000000	0.000000	3447.855834	519.369017	351.275826	3325.495586	7.568741	0.764300	0.235700	0.000000	-0.000000	0.000000
0.288750	0.017363	0.005355	0.000000	-0.000000	0.000000	3446.511828	523.855687	351.277786	3428.489042	7.533322	0.764300	0.235700	0.000000	-0.000000	0.000000
0.296250	0.017738	0.005470	0.000000	-0.000000	0.000000	3445.190303	528.265607	351.279905	3531.961631	7.498936	0.764300	0.235700	0.000000	-0.000000	0.000000
0.303750	0.018111	0.005585	0.000000	-0.000000	0.000000	3443.893321	532.591988	351.282189	3635.664309	7.465604	0.764300	0.235700	0.000000	-0.000000	0.000000
0.311250	0.018480	0.005699	0.000000	-0.000000	0.000000	3442.622972	536.827953	351.284642	3739.331444	7.433348	0.764300	0.235700	0.000000	-0.000000	0.000000
0.318750	0.018845	0.005812	0.000000	-0.000000	0.000000	3441.381367	540.966563	351.287269	3842.681491	7.402189	0.764300	0.235700	0.000000	-0.000000	0.000000
0.326250	0.019206	0.005923	0.000000	-0.000000	0.000000	3440.170634	545.000836	351.290071	3945.417875	7.372147	0.764300	0.235700	0.000000	-0.000000	0.000000
0.333750	0.019561	0.006032	0.000000	-0.000000	0.000000	3438.992906	548.923776	351.293051	4047.230099	7.343242	0.764300	0.235700	0.000000	-0.000000	0.000000
0.341250	0.019909	0.006140	0.000000	-0.000000	0.000000	3437.850316	552.728394	351.296210	4147.795070	7.315494	0.764300	0.235700	0.000000	-0.000000	0.000000
0.348750	0.020249	0.006245	0.000000	-0.000000	0.000000	3436.744986	556.407742	351.299548	4246.778662	7.288922	0.764300	0.235700	0.000000	-0.000000	0.000000
0.356250	0.020581	0.006347	0.000000	-0.000000	0.000000	3435.679023	559.954935	351.303062	4343.837495	7.263545	0.764300	0.235700	0.000000	-0.000000	0.000000
0.363750	0.020903	0.006446	0.000000	-0.000000	0.000000	3434.654503	563.363185	351.306752	4438.620938	7.239380	0.764300	0.235700	0.000000	-0.000000	0.000000
0.371250	0.021214	0.006542	0.000000	-0.000000	0.000000	3433.673468	566.625831	351.310612	4530.773314	7.216446	0.764300	0.235700	0.000000	-0.000000	0.000000
0.378750	0.021513	0.006634	0.000000	-0.000000	0.000000	3432.737910	569.736368	351.314640	4619.936298	7.194759	0.764300	0.235700	0.000000	-0.000000	0.000000
0.386250	0.021800	0.006723	0.000000	-0.000000	0.000000	3431.849768	572.688479	351.318828	4705.751489	7.174334	0.764300	0.235700	0.000000	-0.000000	0.000000
0.393750	0.022073	0.006807	0.000000	-0.000000	0.000000	3431.010913	575.476068	351.323171	4787.863122	7.155188	0.764300	0.235700	0.000000	-0.000000	0.000000
0.401250	0.022331	0.006887	0.000000	-0.000000	0.000000	3430.223141	578.093292	351.327661	4865.920900	7.137333	0.764300	0.235700	0.000000	-0.000000	0.000000
0.408750	0.022574	0.006961	0.000000	-0.000000	0.000000	3429.488162	580.534586	351.332289	4939.582912	7.120784	0.764300	0.235700	0.000000	-0.000000	0.000000
0.416250	0.022800	0.007031	0.000000	-0.000000	0.000000	3428.807591	582.794702	351.337047	5008.518592	7.105553	0.764300	0.235700	0.000000	-0.000000	0.000000
0.423750	0.023009	0.007096	0.000000	-0.000000	0.000000	3428.182939	584.868729	351.341924	5072.411692	7.091651	0.764300	0.235700	0.000000	-0.000000	0.000000
0.431250	0.023200	0.007155	0.000000	-0.000000	0.000000	3427.615605	586.752126	351.346909	5130.963208	7.079089	0.764300	0.235700	0.000000	-0.000000	0.000000
0.438750	0.023372	0.007208	0.000000	-0.000000	0.000000	3427.106866	588.440748	351.351993	5183.894240	7.067875	0.764300	0.235700	0.000000	-0.000000	0.000000
0.446250	0.023525	0.007255	0.000000	-0.000000	0.000000	3426.657872	589.930867	351.357162	5230.948717	7.058018	0.764300	0.235700	0.000000	-0.000000	0.000000
0.453750	0.023657	0.007296	0.000000	-0.000000	0.000000	3426.269636	591.219197	351.362406	5271.895960	7.049525	0.764300	0.235700	0.000000	-0.000000	0.000000
0.461250	0.023769	0.007330	0.000000	-0.000000	0.000000	3425.943031	592.302911	351.367712	5306.533036	7.042401	0.764300	0.235700	0.000000	-0.000000	0.000000
0.468750	0.023860	0.007358	0.000000	-0.000000	0.000000	3425.678784	593.179659	351.373068	5334.686853	7.036652	0.764300	0.235700	0.000000	-0.000000	0.000000
0.476250	0.023929	0.007379	0.000000	-0.000000	0.000000	3425.477468	593.847583	351.378462	5356.215983	7.032281	0.764300	0.235700	0.000000	-0.000000	0.000000
0.483750	0.023977	0.007394	0.000000	-0.000000	0.000000	3425.339504	594.305325	351.383880	5371.012151	7.029289	0.764300	0.235700	0.000000	-0.000000	0.000000
0.491250	0.024002	0.007402	0.000000	-0.000000	0.000000	3425.265154	594.552039	351.389311	5379.001392	7.027678	0.764300	0.235700	0.000000	-0.000000	0.000000
0.498750	0.024006	0.007403	0.000000	-0.000000	0.000000	3425.254525	594.587391	351.394741	5380.144831	7.027447	0.764300	0.235700	0.000000	-0.000000	0.000000
0.506250	0.023988	0.007397	0.000000	-0.000000	0.000000	3425.307559	594.411564	351.400158	5374.439093	7.028595	0.764300	0.235700	0.000000	-0.000000	0.000000
0.513750	0.023947	0.007385	0.000000	-0.000000	0.000000	3425.424046	594.025254	351.405549	5361.916314	7.031119	0.764300	0.235700	0.000000	-0.000000	0.000000
0.521250	0.023885	0.007366	0.000000	-0.000000	0.000000	3425.603615	593.429668	351.410902	5342.643780	7.035015	0.764300	0.235700	0.000000	-0.000000	0.000000
0.528750	0.023802	0.007340	0.000000	-0.000000	0.000000	3425.845741	592.626510	351.416204	5316.723170	7.040279	0.764300	0.235700	0.000000	-0.000000	0.000000
0.536250	0.023697	0.007308	0.000000	-0.000000	0.000000	3426.149750	591.617975	351.421444	5284.289442	7.046902	0.764300	0.235700	0.000000	-0.000000	0.000000
0.543750	0.023571	0.007269	0.000000	-0.000000	0.000000	3426.514822	590.406732	351.426609	5245.509373	7.054879	0.764300	0.235700	0.000000	-0.000000	0.000000
0.551250	0.023425	0.007224	0.000000	-0.000000	0.000000	3426.939994	588.995908	351.431688	5200.579775	7.064199	0.764300	0.235700	0.000000	-0.000000	0.000000
0.558750	0.023260	0.007173	0.000000	-0.000000	0.000000	3427.424169	587.389068	351.436670	5149.725428	7.074854	0.764300	0.235700	0.000000	-0.000000	0.000000
0.566250	0.023075	0.007116	0.000000	-0.000000	0.000000	3427.966125	585.590192	351.441544	5093.196759	7.086833	0.764300	0.235700	0.000000	-0.000000	0.000000
0.573750	0.022872	0.007053	0.000000	-0.000000	0.000000	3428.564516	583.603654	351.446300	5031.267313	7.100123	0.764300	0.235700	0.000000	-0.000000	0.000000
0.581250	0.022651	0.006985	0.000000	-0.000000	0.000000	3429.217886	581.434190	351.450928	4964.231048	7.114713	0.764300	0.235700	0.000000	-0.000000	0.000000
0.588750	0.022414	0.006912	0.000000	-0.000000	0.000000	3429.924674	579.086880	351.455419	4892.399514	7.130587	0.764300	0.235700	0.000000	-0.000000	0.000000
0.596250	0.022161	0.006834	0.000000	-0.000000	0.000000	3430.683227	576.567108	351.459766	4816.098939	7.147732	0.764300	0.235700	0.000000	-0.000000	0.000000
0.603750	0.021893	0.006751	0.000000	-0.000000	0.000000	3431.491805	573.880543	351.463961	4735.667285	7.166132	0.764300	0.235700	0.000000	-0.000000	0.000000
0.611250	0.021611	0.006664	0.000000	-0.000000	0.000000	3432.348592	571.033101	351.467997	4651.451305	7.185770	0.764300	0.235700	0.000000	-0.000000	0.000000
0.618750	0.021316	0.006573	0.000000	-0.000000	0.000000	3433.251706	568.030920	351.471869	4563.803643	7.206630	0.764300	0.235700	0.000000	-0.000000	0.000000
0.626250	0.021008	0.006479	0.000000	-0.000000	0.000000	3434.199209	564.880322	351.475573	4473.080012	7.228694	0.764300	0.235700	0.000000	-0.000000	0.000000
0.633750	0.020690	0.006381	0.000000	-0.000000	0.000000	3435.189116	561.587791	351.479106	4379.636492	7.251943	0.764300	0.235700	0.000000	-0.000000	0.000000
0.641250	0.020362	0.006279	0.000000	-0.000000	0.000000	3436.219404	558.159936	351.482464	4283.826963	7.276359	0.764300	0.235700	0.000000	-0.000000	0.000000
0.648750	0.020024	0.006175	0.000000	-0.000000	0.000000	3437.288022	554.603464	351.485647	4186.000708	7.301922	0.764300	0.235700	0.000000	-0.000000	0.000000
0.656250	0.019679	0.006069	0.000000	-0.000000	0.000000	3438.392898	550.925152	351.488655	4086.500203	7.328613	0.764300	0.235700	0.000000	-0.000000	0.000000
0.663750	0.019326	0.005960	0.000000	-0.000000	0.000000	3439.531951	547.131816	351.491488	3985.659115	7.356410	0.764300	0.235700	0.000000	-0.000000	0.000000
0.671250	0.018968	0.005849	0.000000	-0.000000	0.000000	3440.703097	543.230288	351.494148	3883.800503	7.385294	0.764300	0.235700	0.000000	-0.000000	0.000000
0.678750	0.018604	0.005737	0.000000	-0.000000	0.000000	3441.904258	539.227388	351.496638	3781.235251	7.415243	0.764300	0.235700	0.000000	-0.000000	0.000000
0.686250	0.018236	0.005624	0.000000	-0.000000	0.000000	3443.133366	535.129900	351.498961	3678.260720	7.446236	0.764300	0.235700	0.000000	-0.000000	0.000000
0.693750	0.017864	0.005509	0.000000	-0.000000	0.000000	3444.388376	530.944552	351.501122	3575.159620	7.478252	0.764300	0.235700	0.000000	-0.000000	0.000000
0.701250	0.017491	0.005394	0.000000	-0.000000	0.000000	3445.667266	526.677992	351.503125	3472.199108	7.511269	0.764300	0.235700	0.000000	-0.000000	0.000000
0.708750	0.017115	0.005278	0.000000	-0.000000	0.000000	3446.968047	522.336772	351.504976	3369.630087	7.545266	0.764300	0.235700	0.000000	-0.000000	0.000000
0.716250	0.016738	0.005162	0.000000	-0.000000	0.000000	3448.288768	517.927326	351.506681	3267.686715	7.580220	0.764300	0.235700	0.000000	-0.000000	0.000000
0.723750	0.016362	0.005046	0.000000	-0.000000	0.000000	3449.627518	513.455961	351.508247	3166.586095	7.616109	0.764300	0.235700	0.000000	-0.000000	0.000000
0.731250	0.015986	0.004930	0.000000	-0.000000	0.000000	3450.982434	508.928833	351.509680	3066.528147	7.652913	0.764300	0.235700	0.000000	-0.000000	0.000000
0.738750	0.015611	0.004814	0.000000	-0.000000	0.000000	3452.351701	504.351946	351.510987	2967.695634	7.690609	0.764300	0.235700	0.000000	-0.000000	0.000000
0.746250	0.015238	0.004699	0.000000	-0.000000	0.000000	3453.733558	499.731130	351.512177	2870.254342	7.729176	0.764300	0.235700	0.000000	-0.000000	0.000000
0.753750	0.014867	0.004585	0.000000	-0.000000	0.000000	3455.126302	495.072040	351.513255	2774.353377	7.768592	0.764300	0.235700	0.000000	-0.000000	0.000000
0.761250	0.014500	0.004472	0.000000	-0.000000	0.000000	3456.528284	490.380143	351.514229	2680.125586	7.808835	0.764300	0.235700	0.000000	-0.000000	0.000000
0.768750	0.014136	0.004359	0.000000	-0.000000	0.000000	3457.937920	485.660714	351.515106	2587.688065	7.849885	0.764300	0.235700	0.000000	-0.000000	0.000000
0.776250	0.013776	0.004248	0.000000	-0.000000	0.000000	3459.353684	480.918830	351.515894	2497.142758	7.891720	0.764300	0.235700	0.000000	-0.000000	0.000000
0.783750	0.013420	0.004139	0.000000	-0.000000	0.000000	3460.774113	476.159367	351.516599	2408.577116	7.934319	0.764300	0.235700	0.000000	-0.000000	0.000000
0.791250	0.013069	0.004030	0.000000	-0.000000	0.000000	3462.197809	471.386995	351.517228	2322.064810	7.977662	0.764300	0.235700	0.000000	-0.000000	0.000000
0.798750	0.012723	0.003924	0.000000	-0.000000	0.000000	3463.623437	466.606181	351.517786	2237.666484	8.021729	0.764300	0.235700	0.000000	-0.000000	0.000000
0.806250	0.012382	0.003819	0.000000	-0.000000	0.000000	3465.049724	461.821183	351.518281	2155.430538	8.066500	0.764300	0.235700	0.000000	-0.000000	0.000000
0.813750	0.012047	0.003715	0.000000	-0.000000	0.000000	3466.475463	457.036056	351.518718	2075.393922	8.111954	0.764300	0.235700	0.000000	-0.000000	0.000000
0.821250	0.011718	0.003614	0.000000	-0.000000	0.000000	3467.899508	452.254650	351.519103	1997.582943	8.158072	0.764300	0.235700	0.000000	-0.000000	0.000000
0.828750	0.011395	0.003514	0.000000	-0.000000	0.000000	3469.320775	447.480611	351.519440	1922.014066	8.204836	0.764300	0.235700	0.000000	-0.000000	0.000000
0.836250	0.011079	0.003416	0.000000	-0.000000	0.000000	3470.738241	442.717389	351.519734	1848.694706	8.252227	0.764300	0.235700	0.000000	-0.000000	0.000000
0.843750	0.010768	0.003321	0.000000	-0.000000	0.000000	3472.150945	437.968235	351.519989	1777.624008	8.300225	0.764300	0.235700	0.000000	-0.000000	0.000000
0.851250	0.011632	0.003571	0.000010	0.000000	0.000012	3215.243002	1390.465304	545.867417	6102.972361	4.180402	0.763994	0.234534	0.000667	0.000001	0.000813
0.858750	0.056484	0.014663	0.001716	0.000004	0.002089	793.229005	4440.325639	3773.230266	98297.257369	0.568379	0.753567	0.195625	0.022898	0.000048	0.027867
0.866250	0.086080	0.019283	0.005135	0.000008	0.005267	435.157898	3882.228962	3856.545269	134804.412644	0.330221	0.743527	0.166557	0.044352	0.000072	0.045495
0.873750	0.097980	0.020108	0.007396	0.000009	0.007231	344.224871	3620.326355	3662.435983	145237.727040	0.269171	0.738221	0.151505	0.055727	0.000066	0.054481
0.881250	0.102849	0.020195	0.008386	0.000008	0.008260	310.958353	3500.100326	3528.292121	148383.838394	0.246675	0.736219	0.144563	0.060029	0.000060	0.059129
0.888750	0.105310	0.020246	0.008748	0.000008	0.008827	292.500081	3439.797119	3454.902433	149742.343633	0.233736	0.735715	0.141442	0.061117	0.000057	0.061670
0.896250	0.106758	0.020324	0.008844	0.000008	0.009159	279.266985	3407.390625	3415.272494	150542.365290	0.224045	0.735792	0.140074	0.060956	0.000054	0.063124
0.903750	0.107696	0.020415	0.008837	0.000008	0.009360	268.463081	3389.038036	3393.185931	151102.719917	0.215862	0.736055	0.139525	0.060396	0.000053	0.063972
0.911250	0.108356	0.020508	0.008797	0.000008	0.009485	258.973858	3378.108530	3380.313234	151540.843913	0.208515	0.736342	0.139366	0.059783	0.000052	0.064458
0.918750	0.108854	0.020599	0.008755	0.000008	0.009564	250.283472	3371.220859	3372.390735	151908.874367	0.201696	0.736593	0.139392	0.059245	0.000051	0.064718
0.926250	0.109255	0.020687	0.008721	0.000008	0.009613	242.134509	3366.585744	3367.189205	152232.230756	0.195252	0.736795	0.139509	0.058814	0.000051	0.064831
0.933750	0.109596	0.020771	0.008697	0.000007	0.009643	234.391512	3363.231172	3363.515896	152524.091269	0.189101	0.736950	0.139671	0.058483	0.000050	0.064845
0.941250	0.109895	0.020852	0.008683	0.000007	0.009661	226.979194	3360.619632	3360.720689	152791.719046	0.183197	0.737066	0.139856	0.058235	0.000050	0.064793
0.948750	0.110167	0.020930	0.008676	0.000007	0.009669	219.852887	3358.453182	3358.446954	153039.424994	0.177512	0.737153	0.140050	0.058050	0.000049	0.064698
0.956250	0.110416	0.021005	0.008674	0.000007	0.009672	212.983985	3356.571500	3356.502937	153270.000195	0.172026	0.737218	0.140245	0.057911	0.000049	0.064576
0.963750	0.110646	0.021076	0.008675	0.000007	0.009671	206.352640	3354.896450	3354.793075	153485.420454	0.166723	0.737268	0.140434	0.057806	0.000049	0.064443
0.971250	0.110859	0.021142	0.008679	0.000007	0.009670	199.944018	3353.399889	3353.279129	153687.197862	0.161593	0.737306	0.140611	0.057724	0.000048	0.064310
0.978750	0.111056	0.021202	0.008685	0.000007	0.009668	193.746264	3352.083072	3351.956188	153876.534600	0.156625	0.737335	0.140768	0.057662	0.000048	0.064187
0.986250	0.111235	0.021256	0.008691	0.000007	0.009667	187.751784	3350.962317	3350.836538	154055.021942	0.151813	0.737358	0.140900	0.057613	0.000048	0.064080
0.993750	0.111387	0.021300	0.008697	0.000007	0.009667	181.894585	3350.051924	3349.932185	154208.552627	0.147104	0.737376	0.141004	0.057576	0.000048	0.063996
1.001250	0.111792	0.021389	0.008725	0.000007	0.009692	177.677453	3349.433531	3349.315403	154729.270402	0.143712	0.737387	0.141084	0.057552	0.000048	0.063929
1.008750	0.111976	0.021433	0.008737	0.000007	0.009701	176.568161	3348.820646	3348.737247	154948.068219	0.142831	0.737396	0.141141	0.057533	0.000048	0.063882
1.016250	0.111993	0.021440	0.008736	0.000007	0.009699	176.519298	3348.354576	3348.290624	154945.443908	0.142803	0.737404	0.141170	0.057518	0.000047	0.063861
1.023750	0.112007	0.021443	0.008735	0.000007	0.009700	176.422702	3348.128241	3348.067766	154952.852677	0.142730	0.737408	0.141174	0.057508	0.000047	0.063862
1.031250	0.112011	0.021441	0.008735	0.000007	0.009704	176.327398	3348.084194	3348.027779	154959.880948	0.142652	0.737411	0.141156	0.057503	0.000047	0.063883
1.038750	0.112010	0.021435	0.008734	0.000007	0.009709	176.230810	3348.187725	3348.135414	154967.043226	0.142569	0.737411	0.141119	0.057502	0.000047	0.063921
1.046250	0.112002	0.021426	0.008734	0.000007	0.009717	176.133209	3348.411563	3348.363103	154974.281241	0.142481	0.737410	0.141065	0.057504	0.000048	0.063974
1.053750	0.111990	0.021413	0.008734	0.000007	0.009726	176.034772	3348.735884	3348.691004	154981.557936	0.142390	0.737408	0.140997	0.057509	0.000048	0.064039
1.061250	0.111974	0.021398	0.008734	0.000007	0.009736	175.935622	3349.148027	3349.106568	154988.844388	0.142295	0.737405	0.140916	0.057516	0.000048	0.064117
1.068750	0.111953	0.021380	0.008734	0.000007	0.009748	175.835799	3349.641704	3349.603645	154996.124713	0.142197	0.737400	0.140821	0.057525	0.000048	0.064206
1.076250	0.111929	0.021359	0.008733	0.000007	0.009761	175.735272	3350.215725	3350.181161	155003.395389	0.142095	0.737395	0.140714	0.057536	0.000048	0.064308
1.083750	0.111900	0.021335	0.008733	0.000007	0.009776	175.633956	3350.872535	3350.841640	155010.662593	0.141991	0.737389	0.140592	0.057548	0.000048	0.064423
1.091250	0.111867	0.021308	0.008733	0.000007	0.009793	175.531731	3351.616869	3351.589868	155017.938945	0.141882	0.737382	0.140456	0.057562	0.000048	0.064552
1.098750	0.111829	0.021278	0.008732	0.000007	0.009812	175.428458	3352.454791	3352.431940	155025.240652	0.141770	0.737375	0.140303	0.057579	0.000049	0.064696
1.106250	0.111787	0.021245	0.008732	0.000007	0.009832	175.323980	3353.393254	3353.374844	155032.585724	0.141654	0.737366	0.140134	0.057597	0.000049	0.064856
1.113750	0.111739	0.021207	0.008731	0.000007	0.009855	175.218122	3354.440209	3354.426575	155039.993557	0.141533	0.737356	0.139945	0.057617	0.000049	0.065034
1.121250	0.111685	0.021166	0.008731	0.000008	0.009880	175.110683	3355.605081	3355.596619	155047.485804	0.141406	0.737346	0.139736	0.057640	0.000050	0.065231
1.128750	0.111625	0.021120	0.008730	0.000008	0.009908	175.001438	3356.899283	3356.896454	155055.087979	0.141274	0.737334	0.139505	0.057665	0.000050	0.065449
1.136250	0.111558	0.021069	0.008729	0.000008	0.009939	174.890143	3358.336349	3358.339652	155062.830839	0.141136	0.737320	0.139249	0.057693	0.000050	0.065689
1.143750	0.111483	0.021012	0.008728	0.000008	0.009973	174.776563	3359.931210	3359.941125	155070.750399	0.140990	0.737305	0.138967	0.057724	0.000051	0.065954
1.151250	0.111400	0.020950	0.008727	0.000008	0.010009	174.660510	3361.698361	3361.715249	155078.885517	0.140838	0.737288	0.138658	0.057759	0.000051	0.066245
1.158750	0.111309	0.020883	0.008726	0.000008	0.010049	174.541908	3363.648907	3363.672890	155087.272551	0.140677	0.737270	0.138320	0.057798	0.000052	0.066562
1.166250	0.111209	0.020810	0.008725	0.000008	0.010092	174.420852	3365.786887	3365.817723	155095.937428	0.140509	0.737249	0.137956	0.057842	0.000052	0.066903
1.173750	0.111101	0.020731	0.008724	0.000008	0.010137	174.297662	3368.105600	3368.142588	155104.886441	0.140334	0.737226	0.137567	0.057890	0.000053	0.067267
1.181250	0.110986	0.020649	0.008723	0.000008	0.010184	174.172918	3370.584841	3370.626786	155114.097824	0.140153	0.737201	0.137158	0.057942	0.000054	0.067648
1.188750	0.110866	0.020564	0.008722	0.000008	0.010233	174.047455	3373.189888	3373.235139	155123.516390	0.139969	0.737174	0.136737	0.057997	0.000054	0.068039
1.196250	0.110743	0.020478	0.008722	0.000008	0.010281	173.922318	3375.872742	3375.919302	155133.053013	0.139783	0.737147	0.136311	0.058055	0.000055	0.068434
1.203750	0.110620	0.020393	0.008721	0.000008	0.010328	173.798687	3378.575611	3378.621316	155142.589735	0.139599	0.737118	0.135890	0.058115	0.000056	0.068824
1.211250	0.110500	0.020311	0.008721	0.000008	0.010374	173.677775	3381.236121	3381.278839	155151.989897	0.139418	0.737090	0.135483	0.058173	0.000057	0.069200
1.218750	0.110386	0.020233	0.008721	0.000009	0.010417	173.560723	3383.793280	3383.831105	155161.111509	0.139245	0.737062	0.135098	0.058231	0.000057	0.069554
1.226250	0.110279	0.020161	0.008721	0.000009	0.010456	173.448503	3386.193110	3386.224518	155169.821324	0.139081	0.737036	0.134742	0.058285	0.000058	0.069881
1.233750	0.110182	0.020096	0.008721	0.000009	0.010491	173.341861	3388.392933	3388.416869	155178.007013	0.138929	0.737012	0.134421	0.058335	0.000059	0.070175
1.241250	0.110096	0.020038	0.008721	0.000009	0.010522	173.241288	3390.363673	3390.379567	155185.585375	0.138789	0.736991	0.134138	0.058380	0.000059	0.070434
1.248750	0.110021	0.019989	0.008721	0.000009	0.010548	173.147031	3392.089946	3392.097659	155192.505497	0.138661	0.736971	0.133893	0.058420	0.000060	0.070658
1.256250	0.109958	0.019947	0.008722	0.000009	0.010570	173.059144	3393.568198	3393.567915	155198.746873	0.138547	0.736955	0.133687	0.058455	0.000060	0.070845
1.263750	0.109905	0.019913	0.008722	0.000009	0.010588	172.977548	3394.803456	3394.795554	155204.313415	0.138445	0.736940	0.133519	0.058484	0.000060	0.070997
1.271250	0.109864	0.019886	0.008723	0.000009	0.010602	172.902106	3395.805423	3395.790341	155209.224941	0.138355	0.736928	0.133387	0.058509	0.000061	0.071116
1.278750	0.109832	0.019866	0.008723	0.000009	0.010612	172.832691	3396.584665	3396.562780	155213.507878	0.138277	0.736918	0.133290	0.058530	0.000061	0.071202
1.286250	0.109810	0.019853	0.008724	0.000009	0.010618	172.769239	3397.149449	3397.120997	155217.186799	0.138211	0.736911	0.133228	0.058546	0.000061	0.071255
1.293750	0.109798	0.019847	0.008725	0.000009	0.010620	172.711780	3397.503624	3397.468654	155220.277933	0.138157	0.736905	0.133201	0.058558	0.000061	0.071276
1.301250	0.109796	0.019848	0.008726	0.000009	0.010618	172.660451	3397.645642	3397.604010	155222.785282	0.138114	0.736900	0.133209	0.058567	0.000061	0.071263
1.308750	0.109804	0.019856	0.008728	0.000009	0.010611	172.615484	3397.568645	3397.520040	155224.699372	0.138083	0.736898	0.133255	0.058572	0.000061	0.071214
1.316250	0.109823	0.019872	0.008729	0.000009	0.010600	172.577194	3397.261368	3397.205354	155225.998286	0.138065	0.736898	0.133341	0.058572	0.000061	0.071128
1.323750	0.109853	0.019897	0.008731	0.000009	0.010585	172.545942	3396.709545	3396.645614	155226.650291	0.138060	0.736900	0.133469	0.058569	0.000061	0.071002
1.331250	0.109896	0.019930	0.008733	0.000009	0.010564	172.522108	3395.897485	3395.825115	155226.617250	0.138070	0.736904	0.133642	0.058560	0.000060	0.070834
1.338750	0.109951	0.019973	0.008736	0.000009	0.010537	172.506065	3394.809609	3394.728303	155225.858693	0.138095	0.736910	0.133861	0.058547	0.000060	0.070622
1.346250	0.110020	0.020025	0.008738	0.000009	0.010505	172.498154	3393.431676	3393.341000	155224.334262	0.138136	0.736919	0.134129	0.058528	0.000059	0.070364
1.353750	0.110103	0.020087	0.008741	0.000009	0.010467	172.498673	3391.751662	3391.651266	155222.006812	0.138193	0.736932	0.134447	0.058503	0.000059	0.070059
1.361250	0.110201	0.020160	0.008744	0.000009	0.010424	172.507862	3389.760288	3389.649913	155218.843946	0.138267	0.736947	0.134817	0.058471	0.000058	0.069706
1.368750	0.110314	0.020243	0.008747	0.000009	0.010374	172.525902	3387.451231	3387.330720	155214.818869	0.138359	0.736965	0.135238	0.058433	0.000058	0.069305
1.376250	0.110442	0.020337	0.008750	0.000008	0.010319	172.552912	3384.821150	3384.690441	155209.910674	0.138468	0.736987	0.135710	0.058387	0.000057	0.068857
1.383750	0.110584	0.020441	0.008753	0.000008	0.010257	172.588952	3381.869606	3381.728733	155204.104290	0.138594	0.737013	0.136234	0.058334	0.000056	0.068361
1.391250	0.110742	0.020556	0.008756	0.000008	0.010190	172.634018	3378.598983	3378.448077	155197.390332	0.138737	0.737042	0.136808	0.058273	0.000055	0.067820
1.398750	0.110914	0.020680	0.008758	0.000008	0.010118	172.688045	3375.014466	3374.853757	155189.765072	0.138898	0.737075	0.137429	0.058204	0.000054	0.067235
1.406250	0.111101	0.020815	0.008761	0.000008	0.010040	172.750901	3371.124083	3370.953911	155181.230595	0.139076	0.737112	0.138097	0.058126	0.000053	0.066609
1.413750	0.111302	0.020959	0.008763	0.000008	0.009957	172.822389	3366.938801	3366.759615	155171.795179	0.139270	0.737153	0.138808	0.058041	0.000052	0.065943
1.421250	0.111516	0.021111	0.008766	0.000008	0.009869	172.902241	3362.472593	3362.284961	155161.473773	0.139479	0.737198	0.139560	0.057946	0.000050	0.065242
1.428750	0.111742	0.021272	0.008767	0.000007	0.009777	172.990124	3357.742437	3357.547039	155150.288425	0.139704	0.737248	0.140348	0.057843	0.000049	0.064509