TITLE = "title"
VARIABLES = "X","rhoN2","rhoO2","rhoNO","rhoN","rhoO","u","T","Tv","P","M","YN2","YO2","YNO","YN","YO"
ZONE I=150, DATAPACKING=POINT
0.005000	0.000245	0.000075	0.000000	0.000000	0.000000	3499.062835	347.123618	298.150001	32.003381	9.395551	0.764300	0.235700	0.000000	0.000000	0.000000
0.015000	0.000255	0.000079	0.000000	-0.000000	0.000000	3497.399971	352.756890	298.150002	33.865466	9.315799	0.764300	0.235700	0.000000	-0.000000	0.000000
0.025000	0.000265	0.000082	0.000000	-0.000000	0.000000	3495.710455	358.477705	298.150004	35.834567	9.236702	0.764300	0.235700	0.000000	-0.000000	0.000000
0.035000	0.000276	0.000085	0.000000	-0.000000	0.000000	3493.994688	364.284581	298.150006	37.915762	9.158291	0.764300	0.235700	0.000000	-0.000000	0.000000
0.045000	0.000287	0.000089	0.000000	-0.000000	0.000000	3492.253166	370.175707	298.150009	40.114176	9.080596	0.764300	0.235700	0.000000	-0.000000	0.000000
0.055000	0.000299	0.000092	0.000000	-0.000000	0.000000	3490.486489	376.148923	298.150012	42.434944	9.003650	0.764300	0.235700	0.000000	-0.000000	0.000000
0.065000	0.000312	0.000096	0.000000	-0.000000	0.000000	3488.695374	382.201684	298.150016	44.883175	8.927489	0.764300	0.235700	0.000000	-0.000000	0.000000
0.075000	0.000324	0.000100	0.000000	-0.000000	0.000000	3486.880654	388.331043	298.150021	47.463906	8.852147	0.764300	0.235700	0.000000	-0.000000	0.000000
0.085000	0.000337	0.000104	0.000000	0.000000	0.000000	3485.043295	394.533615	298.150027	50.182043	8.777660	0.764300	0.235700	0.000000	0.000000	0.000000
0.095000	0.000351	0.000108	0.000000	-0.000000	0.000000	3483.184403	400.805556	298.150035	53.042306	8.704066	0.764300	0.235700	0.000000	-0.000000	0.000000
0.105000	0.000365	0.000113	0.000000	-0.000000	0.000000	3481.305227	407.142532	298.150044	56.049155	8.631404	0.764300	0.235700	0.000000	-0.000000	0.000000
0.115000	0.000380	0.000117	0.000000	-0.000000	0.000000	3479.407175	413.539690	298.150055	59.206716	8.559714	0.764300	0.235700	0.000000	-0.000000	0.000000
0.125000	0.000395	0.000122	0.000000	-0.000000	0.000000	3477.491819	419.991633	298.150069	62.518695	8.489036	0.764300	0.235700	0.000000	-0.000000	0.000000
0.135000	0.000410	0.000127	0.000000	-0.000000	0.000000	3475.560904	426.492394	298.150085	65.988282	8.419413	0.764300	0.235700	0.000000	-0.000000	0.000000
0.145000	0.000427	0.000132	0.000000	-0.000000	0.000000	3473.616353	433.035410	298.150104	69.618049	8.350889	0.764300	0.235700	0.000000	-0.000000	0.000000
0.155000	0.000443	0.000137	0.000000	-0.000000	0.000000	3471.660281	439.613499	298.150126	73.409838	8.283508	0.764300	0.235700	0.000000	-0.000000	0.000000
0.165000	0.000460	0.000142	0.000000	-0.000000	0.000000	3469.694996	446.218840	298.150153	77.364644	8.217315	0.764300	0.235700	0.000000	-0.000000	0.000000
0.175000	0.000477	0.000147	0.000000	-0.000000	0.000000	3467.723007	452.842952	298.150184	81.482483	8.152357	0.764300	0.235700	0.000000	-0.000000	0.000000
0.185000	0.000495	0.000153	0.000000	-0.000000	0.000000	3465.747030	459.476684	298.150221	85.762269	8.088681	0.764300	0.235700	0.000000	-0.000000	0.000000
0.195000	0.000513	0.000158	0.000000	0.000000	0.000000	3463.769990	466.110202	298.150264	90.201669	8.026336	0.764300	0.235700	0.000000	0.000000	0.000000
0.205000	0.000532	0.000164	0.000000	0.000000	0.000000	3461.795024	472.732981	298.150314	94.796968	7.965370	0.764300	0.235700	0.000000	0.000000	0.000000
0.215000	0.000551	0.000170	0.000000	0.000000	0.000000	3459.825482	479.333810	298.150371	99.542929	7.905835	0.764300	0.235700	0.000000	0.000000	0.000000
0.225000	0.000570	0.000176	0.000000	0.000000	0.000000	3457.864926	485.900791	298.150437	104.432659	7.847780	0.764300	0.235700	0.000000	0.000000	0.000000
0.235000	0.000590	0.000182	0.000000	0.000000	0.000000	3455.917127	492.421357	298.150512	109.457473	7.791256	0.764300	0.235700	0.000000	0.000000	0.000000
0.245000	0.000609	0.000188	0.000000	0.000000	0.000000	3453.986058	498.882289	298.150597	114.606779	7.736314	0.764300	0.235700	0.000000	0.000000	0.000000
0.255000	0.000629	0.000194	0.000000	0.000000	0.000000	3452.075888	505.269746	298.150694	119.867967	7.683008	0.764300	0.235700	0.000000	0.000000	0.000000
0.265000	0.000649	0.000200	0.000000	0.000000	0.000000	3450.190970	511.569297	298.150803	125.226325	7.631387	0.764300	0.235700	0.000000	0.000000	0.000000
0.275000	0.000670	0.000206	0.000000	-0.000000	0.000000	3448.335829	517.765975	298.150926	130.664966	7.581504	0.764300	0.235700	0.000000	-0.000000	0.000000
0.285000	0.000690	0.000213	0.000000	-0.000000	0.000000	3446.515142	523.844323	298.151062	136.164798	7.533411	0.764300	0.235700	0.000000	-0.000000	0.000000
0.295000	0.000710	0.000219	0.000000	-0.000000	0.000000	3444.733724	529.788467	298.151213	141.704516	7.487158	0.764300	0.235700	0.000000	-0.000000	0.000000
0.305000	0.000729	0.000225	0.000000	-0.000000	0.000000	3442.996501	535.582185	298.151380	147.260635	7.442796	0.764300	0.235700	0.000000	-0.000000	0.000000
0.315000	0.000749	0.000231	0.000000	-0.000000	0.000000	3441.308485	541.208996	298.151562	152.807567	7.400374	0.764300	0.235700	0.000000	-0.000000	0.000000
0.325000	0.000768	0.000237	0.000000	-0.000000	0.000000	3439.674746	546.652253	298.151762	158.317739	7.359942	0.764300	0.235700	0.000000	-0.000000	0.000000
0.335000	0.000787	0.000243	0.000000	-0.000000	0.000000	3438.100381	551.895244	298.151979	163.761767	7.321546	0.764300	0.235700	0.000000	-0.000000	0.000000
0.345000	0.000806	0.000248	0.000000	-0.000000	0.000000	3436.590478	556.921308	298.152213	169.108673	7.285233	0.764300	0.235700	0.000000	-0.000000	0.000000
0.355000	0.000823	0.000254	0.000000	-0.000000	0.000000	3435.150080	561.713950	298.152465	174.326159	7.251046	0.764300	0.235700	0.000000	-0.000000	0.000000
0.365000	0.000840	0.000259	0.000000	-0.000000	0.000000	3433.784148	566.256965	298.152734	179.380926	7.219029	0.764300	0.235700	0.000000	-0.000000	0.000000
0.375000	0.000857	0.000264	0.000000	-0.000000	0.000000	3432.497519	570.534574	298.153020	184.239047	7.189221	0.764300	0.235700	0.000000	-0.000000	0.000000
0.385000	0.000872	0.000269	0.000000	-0.000000	0.000000	3431.294863	574.531549	298.153322	188.866374	7.161660	0.764300	0.235700	0.000000	-0.000000	0.000000
0.395000	0.000887	0.000273	0.000000	-0.000000	0.000000	3430.180647	578.233350	298.153640	193.228993	7.136381	0.764300	0.235700	0.000000	-0.000000	0.000000
0.405000	0.000900	0.000278	0.000000	-0.000000	0.000000	3429.159089	581.626256	298.153973	197.293694	7.113416	0.764300	0.235700	0.000000	-0.000000	0.000000
0.415000	0.000912	0.000281	0.000000	-0.000000	0.000000	3428.234117	584.697497	298.154320	201.028469	7.092795	0.764300	0.235700	0.000000	-0.000000	0.000000
0.425000	0.000923	0.000285	0.000000	-0.000000	0.000000	3427.409335	587.435375	298.154679	204.403013	7.074545	0.764300	0.235700	0.000000	-0.000000	0.000000
0.435000	0.000933	0.000288	0.000000	-0.000000	0.000000	3426.687981	589.829381	298.155049	207.389224	7.058687	0.764300	0.235700	0.000000	-0.000000	0.000000
0.445000	0.000941	0.000290	0.000000	-0.000000	0.000000	3426.072898	591.870303	298.155429	209.961675	7.045242	0.764300	0.235700	0.000000	-0.000000	0.000000
0.455000	0.000948	0.000292	0.000000	-0.000000	0.000000	3425.566500	593.550320	298.155817	212.098067	7.034224	0.764300	0.235700	0.000000	-0.000000	0.000000
0.465000	0.000953	0.000294	-0.000000	-0.000000	0.000000	3425.170750	594.863084	298.156210	213.779626	7.025646	0.764300	0.235700	-0.000000	-0.000000	0.000000
0.475000	0.000957	0.000295	-0.000000	-0.000000	0.000000	3424.887135	595.803787	298.156609	214.991451	7.019517	0.764300	0.235700	-0.000000	-0.000000	0.000000
0.485000	0.000960	0.000296	-0.000000	-0.000000	0.000000	3424.716654	596.369209	298.157009	215.722789	7.015839	0.764300	0.235700	-0.000000	-0.000000	0.000000
0.495000	0.000960	0.000296	0.000000	-0.000000	0.000000	3424.659807	596.557750	298.157411	215.967242	7.014614	0.764300	0.235700	0.000000	-0.000000	0.000000
0.505000	0.000960	0.000296	-0.000000	-0.000000	0.000000	3424.716588	596.369446	298.157811	215.722879	7.015837	0.764300	0.235700	-0.000000	-0.000000	0.000000
0.515000	0.000957	0.000295	-0.000000	-0.000000	0.000000	3424.886489	595.805962	298.158208	214.992276	7.019503	0.764300	0.235700	-0.000000	-0.000000	0.000000
0.525000	0.000953	0.000294	-0.000000	-0.000000	0.000000	3425.168507	594.870572	298.158599	213.782457	7.025598	0.764300	0.235700	-0.000000	-0.000000	0.000000
0.535000	0.000948	0.000292	-0.000000	-0.000000	0.000000	3425.561155	593.568116	298.158985	212.104757	7.034108	0.764300	0.235700	-0.000000	-0.000000	0.000000
0.545000	0.000941	0.000290	0.000000	-0.000000	0.000000	3426.062482	591.904943	298.159362	209.974602	7.045014	0.764300	0.235700	0.000000	-0.000000	0.000000
0.555000	0.000933	0.000288	0.000000	-0.000000	0.000000	3426.670093	589.888839	298.159729	207.411213	7.058295	0.764300	0.235700	0.000000	-0.000000	0.000000
0.565000	0.000923	0.000285	0.000000	-0.000000	0.000000	3427.381179	587.528940	298.160084	204.437249	7.073923	0.764300	0.235700	0.000000	-0.000000	0.000000
0.575000	0.000912	0.000281	0.000000	-0.000000	0.000000	3428.192548	584.835630	298.160427	201.078399	7.091872	0.764300	0.235700	0.000000	-0.000000	0.000000
0.585000	0.000900	0.000278	0.000000	-0.000000	0.000000	3429.100658	581.820434	298.160756	197.362924	7.112108	0.764300	0.235700	0.000000	-0.000000	0.000000
0.595000	0.000887	0.000273	0.000000	-0.000000	0.000000	3430.101655	578.495900	298.161070	193.321182	7.134597	0.764300	0.235700	0.000000	-0.000000	0.000000
0.605000	0.000872	0.000269	0.000000	-0.000000	0.000000	3431.191410	574.875474	298.161368	188.985131	7.159301	0.764300	0.235700	0.000000	-0.000000	0.000000
0.615000	0.000857	0.000264	0.000000	-0.000000	0.000000	3432.365564	570.973371	298.161650	184.387833	7.186182	0.764300	0.235700	0.000000	-0.000000	0.000000
0.625000	0.000840	0.000259	0.000000	-0.000000	0.000000	3433.619560	566.804447	298.161915	179.562966	7.215196	0.764300	0.235700	0.000000	-0.000000	0.000000
0.635000	0.000823	0.000254	0.000000	-0.000000	0.000000	3434.948692	562.384071	298.162163	174.544362	7.246300	0.764300	0.235700	0.000000	-0.000000	0.000000
0.645000	0.000806	0.000248	0.000000	-0.000000	0.000000	3436.348140	557.727993	298.162394	169.365566	7.279449	0.764300	0.235700	0.000000	-0.000000	0.000000
0.655000	0.000787	0.000243	0.000000	-0.000000	0.000000	3437.813008	552.852223	298.162609	164.059441	7.314595	0.764300	0.235700	0.000000	-0.000000	0.000000
0.665000	0.000768	0.000237	0.000000	-0.000000	0.000000	3439.338364	547.772913	298.162806	158.657813	7.351690	0.764300	0.235700	0.000000	-0.000000	0.000000
0.675000	0.000749	0.000231	0.000000	-0.000000	0.000000	3440.919271	542.506244	298.162987	153.191164	7.390685	0.764300	0.235700	0.000000	-0.000000	0.000000
0.685000	0.000730	0.000225	0.000000	-0.000000	0.000000	3442.550822	537.068321	298.163152	147.688372	7.431529	0.764300	0.235700	0.000000	-0.000000	0.000000
0.695000	0.000710	0.000219	0.000000	-0.000000	0.000000	3444.228167	531.475078	298.163302	142.176506	7.474171	0.764300	0.235700	0.000000	-0.000000	0.000000
0.705000	0.000690	0.000213	0.000000	-0.000000	0.000000	3445.946542	525.742190	298.163438	136.680667	7.518560	0.764300	0.235700	0.000000	-0.000000	0.000000
0.715000	0.000670	0.000207	0.000000	-0.000000	0.000000	3447.701294	519.884993	298.163560	131.223874	7.564645	0.764300	0.235700	0.000000	-0.000000	0.000000
0.725000	0.000650	0.000200	0.000000	0.000000	0.000000	3449.487895	513.918419	298.163669	125.827004	7.612374	0.764300	0.235700	0.000000	0.000000	0.000000
0.735000	0.000630	0.000194	0.000000	0.000000	0.000000	3451.301970	507.856933	298.163767	120.508757	7.661695	0.764300	0.235700	0.000000	0.000000	0.000000
0.745000	0.000610	0.000188	0.000000	0.000000	0.000000	3453.139302	501.714486	298.163853	115.285674	7.712556	0.764300	0.235700	0.000000	0.000000	0.000000
0.755000	0.000590	0.000182	0.000000	0.000000	0.000000	3454.995853	495.504468	298.163929	110.172169	7.764908	0.764300	0.235700	0.000000	0.000000	0.000000
0.765000	0.000570	0.000176	0.000000	0.000000	0.000000	3456.867766	489.239683	298.163996	105.180605	7.818699	0.764300	0.235700	0.000000	0.000000	0.000000
0.775000	0.000551	0.000170	0.000000	0.000000	0.000000	3458.751379	482.932317	298.164055	100.321374	7.873880	0.764300	0.235700	0.000000	0.000000	0.000000
0.785000	0.000532	0.000164	0.000000	0.000000	0.000000	3460.643225	476.593924	298.164106	95.603010	7.930401	0.764300	0.235700	0.000000	0.000000	0.000000
0.795000	0.000514	0.000158	0.000000	0.000000	0.000000	3462.540037	470.235415	298.164150	91.032305	7.988214	0.764300	0.235700	0.000000	0.000000	0.000000
0.805000	0.000495	0.000153	0.000000	0.000000	0.000000	3464.438747	463.867051	298.164189	86.614436	8.047272	0.764300	0.235700	0.000000	0.000000	0.000000
0.815000	0.000478	0.000147	0.000000	0.000000	0.000000	3466.336489	457.498447	298.164222	82.353100	8.107528	0.764300	0.235700	0.000000	0.000000	0.000000
0.825000	0.000460	0.000142	0.000000	0.000000	0.000000	3468.230592	451.138576	298.164250	78.250645	8.168937	0.764300	0.235700	0.000000	0.000000	0.000000
0.835000	0.000443	0.000137	0.000000	0.000000	0.000000	3470.118581	444.795780	298.164274	74.308212	8.231454	0.764300	0.235700	0.000000	0.000000	0.000000
0.845000	0.000427	0.000132	0.000000	0.000000	0.000000	3471.998168	438.477780	298.164295	70.525860	8.295036	0.764300	0.235700	0.000000	0.000000	0.000000
0.855000	0.000411	0.000127	0.000000	0.000000	0.000000	3473.867249	432.191699	298.164312	66.902699	8.359640	0.764300	0.235700	0.000000	0.000000	0.000000
0.865000	0.000395	0.000122	0.000000	0.000000	0.000000	3475.723900	425.944076	298.164327	63.437009	8.425226	0.764300	0.235700	0.000000	0.000000	0.000000
0.875000	0.000380	0.000117	0.000000	0.000000	0.000000	3477.566365	419.740889	298.164339	60.126356	8.491753	0.764300	0.235700	0.000000	0.000000	0.000000
0.885000	0.000365	0.000113	0.000000	0.000000	0.000000	3479.393052	413.587578	298.164349	56.967701	8.559183	0.764300	0.235700	0.000000	0.000000	0.000000
0.895000	0.000351	0.000108	0.000000	0.000000	0.000000	3481.202524	407.489068	298.164358	53.957498	8.627478	0.764300	0.235700	0.000000	0.000000	0.000000
0.905000	0.000338	0.000104	0.000000	0.000000	0.000000	3482.993494	401.449796	298.164365	51.091786	8.696602	0.764300	0.235700	0.000000	0.000000	0.000000
0.915000	0.000324	0.000100	0.000000	0.000000	0.000000	3484.764813	395.473734	298.164371	48.366273	8.766520	0.764300	0.235700	0.000000	0.000000	0.000000
0.925000	0.000312	0.000096	0.000000	0.000000	0.000000	3486.515464	389.564414	298.164376	45.776408	8.837197	0.764300	0.235700	0.000000	0.000000	0.000000
0.935000	0.000299	0.000092	0.000000	0.000000	0.000000	3488.244555	383.724957	298.164380	43.317451	8.908600	0.764300	0.235700	0.000000	0.000000	0.000000
0.945000	0.000288	0.000089	0.000000	0.000000	0.000000	3489.951310	377.958094	298.164383	40.984530	8.980699	0.764300	0.235700	0.000000	0.000000	0.000000
0.955000	0.000276	0.000085	0.000000	0.000000	0.000000	3491.635061	372.266194	298.164386	38.772696	9.053461	0.764300	0.235700	0.000000	0.000000	0.000000
0.965000	0.000265	0.000082	0.000000	0.000000	0.000000	3493.295242	366.651285	298.164388	36.676964	9.126857	0.764300	0.235700	0.000000	0.000000	0.000000
0.975000	0.000255	0.000079	0.000000	0.000000	0.000000	3494.931379	361.115080	298.164389	34.692358	9.200860	0.764300	0.235700	0.000000	0.000000	0.000000
0.985000	0.000245	0.000075	0.000000	0.000000	0.000000	3496.543088	355.658999	298.164391	32.813938	9.275441	0.764300	0.235700	0.000000	0.000000	0.000000
0.995000	0.000362	0.000112	0.000000	0.000000	0.000000	2529.258980	3569.936499	761.056820	487.370900	2.053148	0.764299	0.235631	0.000003	0.000000	0.000068
1.005000	0.001188	0.000365	0.000000	0.000000	0.000001	754.749110	6159.202353	2558.430864	2760.614867	0.466290	0.764287	0.235022	0.000027	0.000001	0.000664
1.015000	0.001405	0.000427	0.000000	0.000000	0.000006	608.025588	5768.491892	3528.511141	3065.010956	0.387546	0.764190	0.232062	0.000221	0.000007	0.003520
1.025000	0.001527	0.000452	0.000002	0.000000	0.000018	553.291058	5430.065432	4079.524103	3153.027892	0.362343	0.763782	0.225941	0.001053	0.000026	0.009198
1.035000	0.001620	0.000462	0.000006	0.000000	0.000035	517.392888	5169.392781	4374.650579	3208.927484	0.345896	0.762912	0.217816	0.002858	0.000054	0.016360
1.045000	0.001693	0.000464	0.000013	0.000000	0.000053	492.011724	4964.905862	4524.372409	3247.564706	0.334246	0.761580	0.208854	0.005649	0.000083	0.023834
1.055000	0.001750	0.000460	0.000021	0.000000	0.000071	473.222760	4802.569239	4590.763769	3275.687803	0.325588	0.759888	0.199853	0.009215	0.000110	0.030934
1.065000	0.001796	0.000453	0.000031	0.000000	0.000089	458.873037	4672.311401	4609.107632	3296.865270	0.318950	0.757967	0.191252	0.013282	0.000133	0.037366
1.075000	0.001832	0.000444	0.000043	0.000000	0.000104	447.652306	4566.609060	4599.826463	3313.202362	0.313745	0.755931	0.183256	0.017602	0.000153	0.043059
1.085000	0.001862	0.000435	0.000054	0.000000	0.000119	438.703584	4479.800849	4574.950916	3326.052905	0.309586	0.753870	0.175931	0.021983	0.000168	0.048048
1.095000	0.001886	0.000425	0.000066	0.000000	0.000131	431.440720	4407.629370	4541.668133	3336.335898	0.306208	0.751846	0.169271	0.026291	0.000181	0.052410
1.105000	0.001906	0.000415	0.000077	0.000000	0.000143	425.451240	4346.892821	4504.309816	3344.695568	0.303422	0.749901	0.163239	0.030436	0.000192	0.056232
1.115000	0.001922	0.000405	0.000088	0.000001	0.000153	420.438951	4295.176531	4465.492160	3351.592942	0.301092	0.748058	0.157782	0.034366	0.000200	0.059594
1.125000	0.001937	0.000397	0.000099	0.000001	0.000162	416.187677	4250.649703	4426.784207	3357.363046	0.299117	0.746331	0.152842	0.038050	0.000207	0.062569
1.135000	0.001949	0.000388	0.000109	0.000001	0.000171	412.537346	4211.914181	4389.107854	3362.252557	0.297423	0.744726	0.148367	0.041477	0.000213	0.065218
1.145000	0.001959	0.000380	0.000118	0.000001	0.000178	409.367837	4177.893165	4352.981662	3366.445329	0.295953	0.743242	0.144305	0.044645	0.000218	0.067591
1.155000	0.001968	0.000373	0.000126	0.000001	0.000185	406.587847	4147.749745	4318.671868	3370.080013	0.294665	0.741877	0.140611	0.047560	0.000222	0.069730
1.165000	0.001976	0.000366	0.000134	0.000001	0.000191	404.127129	4120.827264	4286.287168	3373.262381	0.293527	0.740626	0.137245	0.050234	0.000225	0.071670
1.175000	0.001984	0.000360	0.000141	0.000001	0.000197	401.930991	4096.605560	4255.838840	3376.074035	0.292511	0.739483	0.134172	0.052678	0.000227	0.073440
1.185000	0.001990	0.000354	0.000148	0.000001	0.000202	399.956376	4074.668681	4227.279184	3378.578622	0.291599	0.738440	0.131360	0.054907	0.000229	0.075063
1.195000	0.001996	0.000349	0.000154	0.000001	0.000207	398.169012	4054.680929	4200.526204	3380.826314	0.290775	0.737492	0.128782	0.056936	0.000231	0.076560
1.205000	0.002002	0.000344	0.000160	0.000001	0.000212	396.541341	4036.368942	4175.479460	3382.857069	0.290024	0.736631	0.126412	0.058779	0.000232	0.077946
1.215000	0.002007	0.000339	0.000165	0.000001	0.000216	395.050983	4019.508197	4152.030206	3384.703028	0.289337	0.735850	0.124232	0.060449	0.000233	0.079236
1.225000	0.002012	0.000334	0.000170	0.000001	0.000220	393.679593	4003.912765	4130.067815	3386.390289	0.288705	0.735143	0.122220	0.061961	0.000233	0.080442
1.235000	0.002016	0.000330	0.000174	0.000001	0.000224	392.411998	3989.427463	4109.483747	3387.940235	0.288121	0.734505	0.120361	0.063327	0.000234	0.081572
1.245000	0.002021	0.000327	0.000178	0.000001	0.000228	391.235546	3975.921806	4090.173930	3389.370541	0.287580	0.733930	0.118641	0.064559	0.000234	0.082636
1.255000	0.002025	0.000323	0.000181	0.000001	0.000231	390.139600	3963.285295	4072.040084	3390.695935	0.287075	0.733412	0.117045	0.065667	0.000235	0.083641
1.265000	0.002029	0.000320	0.000185	0.000001	0.000234	389.115150	3951.423738	4054.990369	3391.928786	0.286604	0.732948	0.115563	0.066662	0.000235	0.084592
1.275000	0.002032	0.000317	0.000187	0.000001	0.000237	388.154513	3940.256332	4038.939587	3393.079559	0.286162	0.732532	0.114185	0.067552	0.000235	0.085496
1.285000	0.002036	0.000314	0.000190	0.000001	0.000240	387.251093	3929.713353	4023.809108	3394.157169	0.285747	0.732161	0.112900	0.068348	0.000235	0.086357
1.295000	0.002040	0.000311	0.000192	0.000001	0.000243	386.399189	3919.734302	4009.526627	3395.169263	0.285355	0.731831	0.111701	0.069055	0.000234	0.087179
1.305000	0.002043	0.000309	0.000195	0.000001	0.000246	385.593851	3910.266412	3996.025823	3396.122436	0.284984	0.731538	0.110580	0.069682	0.000234	0.087965
1.315000	0.002046	0.000306	0.000197	0.000001	0.000248	384.830753	3901.263434	3983.245966	3397.022415	0.284633	0.731280	0.109531	0.070236	0.000234	0.088719
1.325000	0.002049	0.000304	0.000198	0.000001	0.000251	384.106099	3892.684648	3971.131508	3397.874193	0.284300	0.731054	0.108548	0.070722	0.000234	0.089443
1.335000	0.002052	0.000302	0.000200	0.000001	0.000253	383.416540	3884.494048	3959.631669	3398.682152	0.283983	0.730856	0.107625	0.071146	0.000233	0.090140
1.345000	0.002055	0.000300	0.000201	0.000001	0.000255	382.759107	3876.659670	3948.700042	3399.450149	0.283680	0.730685	0.106757	0.071513	0.000233	0.090812
1.355000	0.002058	0.000298	0.000202	0.000001	0.000258	382.131164	3869.153033	3938.294213	3400.181601	0.283391	0.730539	0.105941	0.071828	0.000233	0.091460
1.365000	0.002061	0.000297	0.000203	0.000001	0.000260	381.530353	3861.948670	3928.375414	3400.879540	0.283115	0.730414	0.105171	0.072095	0.000232	0.092088
1.375000	0.002064	0.000295	0.000204	0.000001	0.000262	380.954565	3855.023737	3918.908188	3401.546671	0.282849	0.730311	0.104445	0.072318	0.000232	0.092695
1.385000	0.002067	0.000294	0.000205	0.000001	0.000264	380.401904	3848.357677	3909.860096	3402.185417	0.282595	0.730226	0.103759	0.072501	0.000231	0.093284
1.395000	0.002069	0.000292	0.000206	0.000001	0.000266	379.870660	3841.931942	3901.201436	3402.797952	0.282350	0.730158	0.103109	0.072647	0.000231	0.093855
1.405000	0.002072	0.000291	0.000206	0.000001	0.000268	379.359287	3835.729750	3892.904997	3403.386233	0.282115	0.730106	0.102494	0.072760	0.000230	0.094410
1.415000	0.002074	0.000290	0.000207	0.000001	0.000270	378.866385	3829.735880	3884.945830	3403.952029	0.281888	0.730068	0.101910	0.072841	0.000230	0.094950
1.425000	0.002077	0.000288	0.000207	0.000001	0.000272	378.390683	3823.936492	3877.301039	3404.496941	0.281669	0.730044	0.101356	0.072894	0.000229	0.095476
1.435000	0.002079	0.000287	0.000208	0.000001	0.000273	377.931022	3818.318977	3869.949598	3405.022421	0.281457	0.730031	0.100829	0.072922	0.000229	0.095989
1.445000	0.002082	0.000286	0.000208	0.000001	0.000275	377.486346	3812.871822	3862.872182	3405.529794	0.281252	0.730030	0.100327	0.072925	0.000228	0.096489
1.455000	0.002084	0.000285	0.000208	0.000001	0.000277	377.055687	3807.584494	3856.051010	3406.020264	0.281053	0.730039	0.099849	0.072907	0.000228	0.096976
1.465000	0.002086	0.000284	0.000208	0.000001	0.000279	376.638163	3802.447340	3849.469711	3406.494932	0.280861	0.730057	0.099393	0.072870	0.000227	0.097453
1.475000	0.002089	0.000283	0.000208	0.000001	0.000280	376.232960	3797.451494	3843.113195	3406.954798	0.280674	0.730084	0.098956	0.072814	0.000227	0.097919
1.485000	0.002091	0.000282	0.000208	0.000001	0.000282	375.839403	3792.588807	3836.967580	3407.401248	0.280492	0.730118	0.098539	0.072741	0.000226	0.098375
1.495000	0.002093	0.000281	0.000208	0.000001	0.000283	375.453040	3787.854617	3831.021942	3407.810916	0.280313	0.730160	0.098140	0.072654	0.000226	0.098821
