TITLE = "title"
VARIABLES = "X","rhoN2","rhoO2","rhoNO","rhoN","rhoO","u","T","Tv","P","M","YN2","YO2","YNO","YN","YO"
ZONE I=150, DATAPACKING=POINT
0.005000	0.000245	0.000075	-0.000000	-0.000000	-0.000000	3499.062835	347.123618	298.150001	32.003381	9.395551	0.764300	0.235700	-0.000000	-0.000000	-0.000000
0.015000	0.000255	0.000079	-0.000000	-0.000000	-0.000000	3497.399971	352.756890	298.150002	33.865466	9.315799	0.764300	0.235700	-0.000000	-0.000000	-0.000000
0.025000	0.000265	0.000082	-0.000000	-0.000000	-0.000000	3495.710455	358.477705	298.150004	35.834567	9.236702	0.764300	0.235700	-0.000000	-0.000000	-0.000000
0.035000	0.000276	0.000085	-0.000000	-0.000000	-0.000000	3493.994688	364.284581	298.150006	37.915762	9.158291	0.764300	0.235700	-0.000000	-0.000000	-0.000000
0.045000	0.000287	0.000089	-0.000000	-0.000000	-0.000000	3492.253166	370.175707	298.150009	40.114176	9.080596	0.764300	0.235700	-0.000000	-0.000000	-0.000000
0.055000	0.000299	0.000092	-0.000000	-0.000000	-0.000000	3490.486489	376.148923	298.150012	42.434944	9.003650	0.764300	0.235700	-0.000000	-0.000000	-0.000000
0.065000	0.000312	0.000096	-0.000000	-0.000000	-0.000000	3488.695374	382.201684	298.150016	44.883175	8.927489	0.764300	0.235700	-0.000000	-0.000000	-0.000000
0.075000	0.000324	0.000100	-0.000000	-0.000000	-0.000000	3486.880654	388.331043	298.150021	47.463906	8.852147	0.764300	0.235700	-0.000000	-0.000000	-0.000000
0.085000	0.000337	0.000104	-0.000000	-0.000000	-0.000000	3485.043295	394.533615	298.150027	50.182043	8.777660	0.764300	0.235700	-0.000000	-0.000000	-0.000000
0.095000	0.000351	0.000108	-0.000000	-0.000000	-0.000000	3483.184403	400.805556	298.150035	53.042306	8.704066	0.764300	0.235700	-0.000000	-0.000000	-0.000000
0.105000	0.000365	0.000113	-0.000000	-0.000000	-0.000000	3481.305227	407.142532	298.150044	56.049155	8.631404	0.764300	0.235700	-0.000000	-0.000000	-0.000000
0.115000	0.000380	0.000117	-0.000000	-0.000000	-0.000000	3479.407175	413.539690	298.150055	59.206716	8.559714	0.764300	0.235700	-0.000000	-0.000000	-0.000000
0.125000	0.000395	0.000122	-0.000000	-0.000000	-0.000000	3477.491819	419.991633	298.150069	62.518695	8.489036	0.764300	0.235700	-0.000000	-0.000000	-0.000000
0.135000	0.000410	0.000127	-0.000000	-0.000000	-0.000000	3475.560904	426.492394	298.150085	65.988282	8.419413	0.764300	0.235700	-0.000000	-0.000000	-0.000000
0.145000	0.000427	0.000132	-0.000000	-0.000000	-0.000000	3473.616353	433.035410	298.150104	69.618049	8.350889	0.764300	0.235700	-0.000000	-0.000000	-0.000000
0.155000	0.000443	0.000137	-0.000000	-0.000000	-0.000000	3471.660281	439.613499	298.150126	73.409838	8.283508	0.764300	0.235700	-0.000000	-0.000000	-0.000000
0.165000	0.000460	0.000142	-0.000000	-0.000000	-0.000000	3469.694996	446.218840	298.150153	77.364644	8.217315	0.764300	0.235700	-0.000000	-0.000000	-0.000000
0.175000	0.000477	0.000147	-0.000000	-0.000000	-0.000000	3467.723007	452.842952	298.150184	81.482483	8.152357	0.764300	0.235700	-0.000000	-0.000000	-0.000000
0.185000	0.000495	0.000153	-0.000000	-0.000000	-0.000000	3465.747030	459.476684	298.150221	85.762269	8.088681	0.764300	0.235700	-0.000000	-0.000000	-0.000000
0.195000	0.000513	0.000158	-0.000000	-0.000000	-0.000000	3463.769990	466.110202	298.150264	90.201669	8.026336	0.764300	0.235700	-0.000000	-0.000000	-0.000000
0.205000	0.000532	0.000164	-0.000000	-0.000000	-0.000000	3461.795024	472.732981	298.150314	94.796968	7.965370	0.764300	0.235700	-0.000000	-0.000000	-0.000000
0.215000	0.000551	0.000170	-0.000000	-0.000000	-0.000000	3459.825482	479.333810	298.150371	99.542929	7.905835	0.764300	0.235700	-0.000000	-0.000000	-0.000000
0.225000	0.000570	0.000176	-0.000000	-0.000000	-0.000000	3457.864926	485.900791	298.150437	104.432659	7.847780	0.764300	0.235700	-0.000000	-0.000000	-0.000000
0.235000	0.000590	0.000182	-0.000000	-0.000000	-0.000000	3455.917127	492.421357	298.150512	109.457473	7.791256	0.764300	0.235700	-0.000000	-0.000000	-0.000000
0.245000	0.000609	0.000188	-0.000000	-0.000000	-0.000000	3453.986058	498.882289	298.150597	114.606779	7.736314	0.764300	0.235700	-0.000000	-0.000000	-0.000000
0.255000	0.000629	0.000194	-0.000000	-0.000000	-0.000000	3452.075888	505.269746	298.150694	119.867967	7.683008	0.764300	0.235700	-0.000000	-0.000000	-0.000000
0.265000	0.000649	0.000200	-0.000000	-0.000000	-0.000000	3450.190970	511.569297	298.150803	125.226325	7.631387	0.764300	0.235700	-0.000000	-0.000000	-0.000000
0.275000	0.000670	0.000206	-0.000000	-0.000000	-0.000000	3448.335829	517.765975	298.150926	130.664966	7.581504	0.764300	0.235700	-0.000000	-0.000000	-0.000000
0.285000	0.000690	0.000213	-0.000000	-0.000000	-0.000000	3446.515142	523.844323	298.151062	136.164798	7.533411	0.764300	0.235700	-0.000000	-0.000000	-0.000000
0.295000	0.000710	0.000219	-0.000000	-0.000000	-0.000000	3444.733724	529.788467	298.151213	141.704516	7.487158	0.764300	0.235700	-0.000000	-0.000000	-0.000000
0.305000	0.000729	0.000225	-0.000000	-0.000000	-0.000000	3442.996501	535.582185	298.151380	147.260635	7.442796	0.764300	0.235700	-0.000000	-0.000000	-0.000000
0.315000	0.000749	0.000231	-0.000000	-0.000000	-0.000000	3441.308485	541.208996	298.151562	152.807567	7.400374	0.764300	0.235700	-0.000000	-0.000000	-0.000000
0.325000	0.000768	0.000237	-0.000000	-0.000000	-0.000000	3439.674746	546.652253	298.151762	158.317739	7.359942	0.764300	0.235700	-0.000000	-0.000000	-0.000000
0.335000	0.000787	0.000243	-0.000000	-0.000000	-0.000000	3438.100381	551.895244	298.151979	163.761767	7.321546	0.764300	0.235700	-0.000000	-0.000000	-0.000000
0.345000	0.000806	0.000248	-0.000000	-0.000000	-0.000000	3436.590478	556.921308	298.152213	169.108673	7.285233	0.764300	0.235700	-0.000000	-0.000000	-0.000000
0.355000	0.000823	0.000254	-0.000000	-0.000000	-0.000000	3435.150080	561.713950	298.152465	174.326159	7.251046	0.764300	0.235700	-0.000000	-0.000000	-0.000000
0.365000	0.000840	0.000259	-0.000000	-0.000000	-0.000000	3433.784148	566.256965	298.152734	179.380926	7.219029	0.764300	0.235700	-0.000000	-0.000000	-0.000000
0.375000	0.000857	0.000264	-0.000000	-0.000000	-0.000000	3432.497519	570.534574	298.153020	184.239047	7.189221	0.764300	0.235700	-0.000000	-0.000000	-0.000000
0.385000	0.000872	0.000269	-0.000000	-0.000000	-0.000000	3431.294863	574.531549	298.153322	188.866374	7.161660	0.764300	0.235700	-0.000000	-0.000000	-0.000000
0.395000	0.000887	0.000273	-0.000000	-0.000000	-0.000000	3430.180647	578.233350	298.153640	193.228993	7.136381	0.764300	0.235700	-0.000000	-0.000000	-0.000000
0.405000	0.000900	0.000278	-0.000000	0.000000	0.000000	3429.159089	581.626256	298.153973	197.293694	7.113416	0.764300	0.235700	-0.000000	0.000000	0.000000
0.415000	0.000912	0.000281	-0.000000	0.000000	0.000000	3428.234117	584.697497	298.154320	201.028469	7.092795	0.764300	0.235700	-0.000000	0.000000	0.000000
0.425000	0.000923	0.000285	-0.000000	0.000000	0.000000	3427.409335	587.435375	298.154679	204.403013	7.074545	0.764300	0.235700	-0.000000	0.000000	0.000000
0.435000	0.000933	0.000288	-0.000000	0.000000	-0.000000	3426.687981	589.829381	298.155049	207.389224	7.058687	0.764300	0.235700	-0.000000	0.000000	-0.000000
0.445000	0.000941	0.000290	-0.000000	0.000000	-0.000000	3426.072898	591.870303	298.155429	209.961675	7.045242	0.764300	0.235700	-0.000000	0.000000	-0.000000
0.455000	0.000948	0.000292	-0.000000	0.000000	0.000000	3425.566500	593.550320	298.155817	212.098067	7.034224	0.764300	0.235700	-0.000000	0.000000	0.000000
0.465000	0.000953	0.000294	0.000000	0.000000	0.000000	3425.170750	594.863084	298.156210	213.779626	7.025646	0.764300	0.235700	0.000000	0.000000	0.000000
0.475000	0.000957	0.000295	-0.000000	0.000000	0.000000	3424.887135	595.803787	298.156609	214.991451	7.019517	0.764300	0.235700	-0.000000	0.000000	0.000000
0.485000	0.000960	0.000296	0.000000	0.000000	0.000000	3424.716654	596.369209	298.157009	215.722789	7.015839	0.764300	0.235700	0.000000	0.000000	0.000000
0.495000	0.000960	0.000296	0.000000	0.000000	0.000000	3424.659807	596.557750	298.157411	215.967242	7.014614	0.764300	0.235700	0.000000	0.000000	0.000000
0.505000	0.000960	0.000296	0.000000	0.000000	0.000000	3424.716588	596.369446	298.157811	215.722879	7.015837	0.764300	0.235700	0.000000	0.000000	0.000000
0.515000	0.000957	0.000295	0.000000	0.000000	0.000000	3424.886489	595.805962	298.158208	214.992276	7.019503	0.764300	0.235700	0.000000	0.000000	0.000000
0.525000	0.000953	0.000294	0.000000	0.000000	0.000000	3425.168507	594.870572	298.158599	213.782457	7.025598	0.764300	0.235700	0.000000	0.000000	0.000000
0.535000	0.000948	0.000292	0.000000	0.000000	0.000000	3425.561155	593.568116	298.158985	212.104757	7.034108	0.764300	0.235700	0.000000	0.000000	0.000000
0.545000	0.000941	0.000290	0.000000	0.000000	0.000000	3426.062482	591.904943	298.159362	209.974602	7.045014	0.764300	0.235700	0.000000	0.000000	0.000000
0.555000	0.000933	0.000288	-0.000000	0.000000	0.000000	3426.670093	589.888839	298.159729	207.411213	7.058295	0.764300	0.235700	-0.000000	0.000000	0.000000
0.565000	0.000923	0.000285	0.000000	0.000000	0.000000	3427.381179	587.528940	298.160084	204.437249	7.073923	0.764300	0.235700	0.000000	0.000000	0.000000
0.575000	0.000912	0.000281	0.000000	0.000000	0.000000	3428.192548	584.835630	298.160427	201.078399	7.091872	0.764300	0.235700	0.000000	0.000000	0.000000
0.585000	0.000900	0.000278	0.000000	0.000000	0.000000	3429.100658	581.820434	298.160756	197.362924	7.112108	0.764300	0.235700	0.000000	0.000000	0.000000
0.595000	0.000887	0.000273	0.000000	0.000000	0.000000	3430.101655	578.495900	298.161070	193.321182	7.134597	0.764300	0.235700	0.000000	0.000000	0.000000
0.605000	0.000872	0.000269	-0.000000	0.000000	0.000000	3431.191410	574.875474	298.161368	188.985131	7.159301	0.764300	0.235700	-0.000000	0.000000	0.000000
0.615000	0.000857	0.000264	-0.000000	0.000000	0.000000	3432.365564	570.973371	298.161650	184.387833	7.186182	0.764300	0.235700	-0.000000	0.000000	0.000000
0.625000	0.000840	0.000259	-0.000000	0.000000	0.000000	3433.619560	566.804447	298.161915	179.562966	7.215196	0.764300	0.235700	-0.000000	0.000000	0.000000
0.635000	0.000823	0.000254	-0.000000	0.000000	0.000000	3434.948692	562.384071	298.162163	174.544362	7.246300	0.764300	0.235700	-0.000000	0.000000	0.000000
0.645000	0.000806	0.000248	-0.000000	0.000000	0.000000	3436.348140	557.727993	298.162394	169.365566	7.279449	0.764300	0.235700	-0.000000	0.000000	0.000000
0.655000	0.000787	0.000243	-0.000000	0.000000	0.000000	3437.813008	552.852223	298.162609	164.059441	7.314595	0.764300	0.235700	-0.000000	0.000000	0.000000
0.665000	0.000768	0.000237	-0.000000	0.000000	0.000000	3439.338364	547.772913	298.162806	158.657813	7.351690	0.764300	0.235700	-0.000000	0.000000	0.000000
0.675000	0.000749	0.000231	-0.000000	0.000000	0.000000	3440.919271	542.506244	298.162987	153.191164	7.390685	0.764300	0.235700	-0.000000	0.000000	0.000000
0.685000	0.000730	0.000225	-0.000000	0.000000	0.000000	3442.550822	537.068321	298.163152	147.688372	7.431529	0.764300	0.235700	-0.000000	0.000000	0.000000
0.695000	0.000710	0.000219	-0.000000	0.000000	0.000000	3444.228167	531.475078	298.163302	142.176506	7.474171	0.764300	0.235700	-0.000000	0.000000	0.000000
0.705000	0.000690	0.000213	-0.000000	0.000000	0.000000	3445.946542	525.742190	298.163438	136.680667	7.518560	0.764300	0.235700	-0.000000	0.000000	0.000000
0.715000	0.000670	0.000207	-0.000000	0.000000	0.000000	3447.701294	519.884993	298.163560	131.223874	7.564645	0.764300	0.235700	-0.000000	0.000000	0.000000
0.725000	0.000650	0.000200	-0.000000	0.000000	0.000000	3449.487895	513.918419	298.163669	125.827004	7.612374	0.764300	0.235700	-0.000000	0.000000	0.000000
0.735000	0.000630	0.000194	-0.000000	0.000000	0.000000	3451.301970	507.856933	298.163767	120.508757	7.661695	0.764300	0.235700	-0.000000	0.000000	0.000000
0.745000	0.000610	0.000188	-0.000000	0.000000	0.000000	3453.139302	501.714486	298.163853	115.285674	7.712556	0.764300	0.235700	-0.000000	0.000000	0.000000
0.755000	0.000590	0.000182	-0.000000	0.000000	0.000000	3454.995853	495.504468	298.163929	110.172169	7.764908	0.764300	0.235700	-0.000000	0.000000	0.000000
0.765000	0.000570	0.000176	-0.000000	0.000000	0.000000	3456.867766	489.239683	298.163996	105.180605	7.818699	0.764300	0.235700	-0.000000	0.000000	0.000000
0.775000	0.000551	0.000170	-0.000000	0.000000	0.000000	3458.751379	482.932317	298.164055	100.321374	7.873880	0.764300	0.235700	-0.000000	0.000000	0.000000
0.785000	0.000532	0.000164	-0.000000	0.000000	0.000000	3460.643225	476.593924	298.164106	95.603010	7.930401	0.764300	0.235700	-0.000000	0.000000	0.000000
0.795000	0.000514	0.000158	-0.000000	0.000000	0.000000	3462.540037	470.235415	298.164150	91.032305	7.988214	0.764300	0.235700	-0.000000	0.000000	0.000000
0.805000	0.000495	0.000153	-0.000000	0.000000	0.000000	3464.438747	463.867051	298.164189	86.614436	8.047272	0.764300	0.235700	-0.000000	0.000000	0.000000
0.815000	0.000478	0.000147	-0.000000	0.000000	0.000000	3466.336489	457.498447	298.164222	82.353100	8.107528	0.764300	0.235700	-0.000000	0.000000	0.000000
0.825000	0.000460	0.000142	-0.000000	0.000000	0.000000	3468.230592	451.138576	298.164250	78.250645	8.168937	0.764300	0.235700	-0.000000	0.000000	0.000000
0.835000	0.000443	0.000137	-0.000000	0.000000	0.000000	3470.118581	444.795780	298.164274	74.308212	8.231454	0.764300	0.235700	-0.000000	0.000000	0.000000
0.845000	0.000548	0.000169	0.000000	0.000000	0.000000	2883.463251	2518.451855	655.572370	520.286415	2.786664	0.764291	0.235541	0.000019	0.000000	0.000149
0.855000	0.002029	0.000619	0.000001	0.000000	0.000006	806.676766	5920.009559	2912.375980	4537.847307	0.507834	0.764158	0.233148	0.000296	0.000003	0.002394
0.865000	0.002583	0.000760	0.000006	0.000000	0.000034	568.747043	5477.213824	3925.517952	5387.068109	0.370632	0.763478	0.224754	0.001703	0.000027	0.010038
0.875000	0.002870	0.000793	0.000023	0.000000	0.000083	483.268407	5074.723321	4371.299609	5620.524131	0.324968	0.761399	0.210383	0.006057	0.000074	0.022087
0.885000	0.003071	0.000788	0.000053	0.000000	0.000139	428.311088	4784.561983	4523.033193	5757.849660	0.294607	0.758060	0.194437	0.013108	0.000122	0.034274
0.895000	0.003215	0.000764	0.000092	0.000001	0.000191	388.881134	4575.528635	4540.696736	5849.146750	0.271926	0.754046	0.179284	0.021624	0.000160	0.044886
0.905000	0.003319	0.000734	0.000135	0.000001	0.000238	358.645618	4422.537965	4499.503642	5913.716851	0.253858	0.749900	0.165813	0.030444	0.000189	0.053654
0.915000	0.003397	0.000702	0.000177	0.000001	0.000277	334.226813	4307.872176	4434.940798	5961.724219	0.238765	0.745976	0.154192	0.038806	0.000210	0.060816
0.925000	0.003455	0.000672	0.000216	0.000001	0.000310	313.681073	4219.576090	4363.830011	5999.004322	0.225696	0.742459	0.144298	0.046308	0.000224	0.066710
0.935000	0.003502	0.000644	0.000250	0.000001	0.000339	295.841682	4149.702226	4294.007058	6029.040416	0.214073	0.739426	0.135920	0.052784	0.000234	0.071635
0.945000	0.003540	0.000619	0.000280	0.000001	0.000364	279.983886	4092.951677	4228.891088	6053.971526	0.203538	0.736886	0.128835	0.058212	0.000241	0.075826
0.955000	0.003573	0.000597	0.000305	0.000001	0.000386	265.641913	4045.746822	4169.710132	6075.151277	0.193856	0.734814	0.122839	0.062643	0.000245	0.079459
0.965000	0.003602	0.000579	0.000325	0.000001	0.000406	252.505828	4005.629701	4116.615117	6093.465360	0.184874	0.733167	0.117756	0.066166	0.000247	0.082664
0.975000	0.003628	0.000562	0.000341	0.000001	0.000424	240.361824	3970.877680	4069.248483	6109.512728	0.176480	0.731898	0.113435	0.068883	0.000248	0.085536
0.985000	0.003652	0.000548	0.000354	0.000001	0.000440	229.061878	3940.264802	4027.047333	6123.758765	0.168602	0.730957	0.109749	0.070897	0.000248	0.088148
0.995000	0.003674	0.000536	0.000364	0.000001	0.000456	218.365586	3912.664493	3989.059510	6135.287752	0.161088	0.730297	0.106569	0.072313	0.000247	0.090573
1.005000	0.003714	0.000529	0.000372	0.000001	0.000472	211.748850	3888.041392	3956.106505	6178.422207	0.156521	0.729887	0.103933	0.073194	0.000246	0.092739
1.015000	0.003729	0.000520	0.000376	0.000001	0.000484	210.948362	3864.859798	3926.336936	6178.319238	0.156232	0.729673	0.101683	0.073657	0.000245	0.094743
1.025000	0.003744	0.000512	0.000379	0.000001	0.000496	210.041020	3844.373892	3900.011932	6179.778541	0.155825	0.729613	0.099789	0.073787	0.000243	0.096567
1.035000	0.003758	0.000506	0.000379	0.000001	0.000506	209.246946	3825.950739	3876.544597	6180.954987	0.155472	0.729670	0.098174	0.073669	0.000241	0.098245
1.045000	0.003771	0.000500	0.000379	0.000001	0.000516	208.533050	3809.193160	3855.466448	6181.982896	0.155156	0.729814	0.096779	0.073366	0.000239	0.099802
1.055000	0.003783	0.000495	0.000378	0.000001	0.000525	207.883924	3793.803009	3836.387840	6182.892616	0.154870	0.730021	0.095562	0.072926	0.000237	0.101254
1.065000	0.003795	0.000491	0.000376	0.000001	0.000533	207.287733	3779.554134	3818.989362	6183.708900	0.154607	0.730274	0.094487	0.072388	0.000236	0.102616
1.075000	0.003807	0.000487	0.000374	0.000001	0.000541	206.735522	3766.271750	3803.010464	6184.449830	0.154364	0.730560	0.093528	0.071779	0.000234	0.103899
1.085000	0.003817	0.000484	0.000371	0.000001	0.000549	206.220384	3753.818566	3788.238888	6185.128989	0.154137	0.730868	0.092664	0.071123	0.000232	0.105113
1.095000	0.003828	0.000481	0.000369	0.000001	0.000556	205.736907	3742.085164	3774.501515	6185.756757	0.153925	0.731190	0.091879	0.070436	0.000230	0.106265
1.105000	0.003838	0.000478	0.000366	0.000001	0.000563	205.280789	3730.983179	3761.656756	6186.341194	0.153725	0.731521	0.091158	0.069731	0.000229	0.107361
1.115000	0.003847	0.000476	0.000363	0.000001	0.000570	204.848570	3720.440385	3749.588353	6186.888646	0.153536	0.731856	0.090492	0.069018	0.000227	0.108407
1.125000	0.003857	0.000473	0.000360	0.000001	0.000576	204.437436	3710.397087	3738.200389	6187.404171	0.153355	0.732190	0.089872	0.068305	0.000225	0.109407
1.135000	0.003866	0.000471	0.000357	0.000001	0.000582	204.045070	3700.803433	3727.413305	6187.891851	0.153184	0.732522	0.089292	0.067597	0.000224	0.110365
1.145000	0.003875	0.000469	0.000354	0.000001	0.000588	203.669549	3691.617387	3717.160727	6188.355009	0.153019	0.732850	0.088745	0.066899	0.000222	0.111284
1.155000	0.003883	0.000467	0.000351	0.000001	0.000594	203.309260	3682.803182	3707.386938	6188.796384	0.152862	0.733172	0.088227	0.066212	0.000221	0.112168
1.165000	0.003891	0.000465	0.000348	0.000001	0.000600	202.962840	3674.330119	3698.044873	6189.218249	0.152711	0.733487	0.087735	0.065541	0.000219	0.113018
1.175000	0.003899	0.000464	0.000345	0.000001	0.000605	202.629126	3666.171638	3689.094512	6189.622509	0.152565	0.733794	0.087266	0.064885	0.000218	0.113837
1.185000	0.003907	0.000462	0.000342	0.000001	0.000610	202.307117	3658.304581	3680.501604	6190.010775	0.152424	0.734094	0.086816	0.064246	0.000217	0.114628
1.195000	0.003914	0.000460	0.000339	0.000001	0.000615	201.995947	3650.708615	3672.236640	6190.384419	0.152288	0.734385	0.086384	0.063625	0.000215	0.115391
1.205000	0.003922	0.000459	0.000336	0.000001	0.000620	201.694858	3643.365760	3664.274032	6190.744620	0.152157	0.734668	0.085969	0.063021	0.000214	0.116128
1.215000	0.003929	0.000457	0.000334	0.000001	0.000625	201.403185	3636.260020	3656.591447	6191.092397	0.152030	0.734943	0.085568	0.062435	0.000213	0.116842
1.225000	0.003936	0.000456	0.000331	0.000001	0.000629	201.120339	3629.377078	3649.169270	6191.428639	0.151906	0.735210	0.085180	0.061867	0.000211	0.117533
1.235000	0.003942	0.000455	0.000329	0.000001	0.000634	200.845794	3622.704051	3641.990170	6191.754126	0.151787	0.735468	0.084804	0.061316	0.000210	0.118202
1.245000	0.003949	0.000453	0.000326	0.000001	0.000638	200.579082	3616.229281	3635.038740	6192.069547	0.151670	0.735719	0.084440	0.060781	0.000209	0.118851
1.255000	0.003955	0.000452	0.000324	0.000001	0.000642	200.319776	3609.942177	3628.301211	6192.375516	0.151557	0.735962	0.084087	0.060263	0.000208	0.119481
1.265000	0.003961	0.000451	0.000322	0.000001	0.000646	200.067494	3603.833065	3621.765208	6192.672580	0.151447	0.736197	0.083743	0.059761	0.000207	0.120092
1.275000	0.003967	0.000449	0.000319	0.000001	0.000650	199.821885	3597.893081	3615.419555	6192.961233	0.151340	0.736426	0.083409	0.059274	0.000205	0.120686
1.285000	0.003973	0.000448	0.000317	0.000001	0.000654	199.582629	3592.114070	3609.254109	6193.241920	0.151236	0.736647	0.083083	0.058802	0.000204	0.121263
1.295000	0.003979	0.000447	0.000315	0.000001	0.000658	199.349432	3586.488501	3603.259625	6193.515049	0.151135	0.736862	0.082766	0.058344	0.000203	0.121825
1.305000	0.003985	0.000446	0.000313	0.000001	0.000662	199.122022	3581.009401	3597.427642	6193.780988	0.151035	0.737070	0.082456	0.057900	0.000202	0.122371
1.315000	0.003990	0.000445	0.000311	0.000001	0.000665	198.900148	3575.670296	3591.750383	6194.040077	0.150939	0.737272	0.082154	0.057469	0.000201	0.122903
1.325000	0.003995	0.000443	0.000309	0.000001	0.000669	198.683577	3570.465152	3586.220678	6194.292630	0.150844	0.737469	0.081859	0.057051	0.000200	0.123422
1.335000	0.004001	0.000442	0.000307	0.000001	0.000672	198.472091	3565.388340	3580.831893	6194.538935	0.150752	0.737659	0.081570	0.056645	0.000199	0.123927
1.345000	0.004006	0.000441	0.000305	0.000001	0.000675	198.265489	3560.434592	3575.577872	6194.779261	0.150662	0.737844	0.081288	0.056250	0.000198	0.124419
1.355000	0.004011	0.000440	0.000304	0.000001	0.000679	198.063580	3555.598971	3570.452885	6195.013857	0.150574	0.738024	0.081013	0.055867	0.000197	0.124899
1.365000	0.004016	0.000439	0.000302	0.000001	0.000682	197.866184	3550.876837	3565.451586	6195.242954	0.150488	0.738199	0.080743	0.055494	0.000196	0.125367
1.375000	0.004021	0.000438	0.000300	0.000001	0.000685	197.673136	3546.263825	3560.568975	6195.466772	0.150404	0.738369	0.080479	0.055132	0.000196	0.125825
1.385000	0.004025	0.000437	0.000299	0.000001	0.000688	197.484277	3541.755821	3555.800365	6195.685513	0.150322	0.738534	0.080220	0.054779	0.000195	0.126271
1.395000	0.004030	0.000436	0.000297	0.000001	0.000691	197.299457	3537.348942	3551.141353	6195.899369	0.150242	0.738695	0.079967	0.054436	0.000194	0.126707
1.405000	0.004034	0.000435	0.000295	0.000001	0.000694	197.118536	3533.039517	3546.587798	6196.108520	0.150163	0.738852	0.079719	0.054102	0.000193	0.127133
1.415000	0.004039	0.000434	0.000294	0.000001	0.000697	196.941379	3528.824073	3542.135794	6196.313137	0.150086	0.739005	0.079476	0.053777	0.000192	0.127550
1.425000	0.004043	0.000433	0.000292	0.000001	0.000700	196.767861	3524.699317	3537.781655	6196.513379	0.150010	0.739153	0.079238	0.053460	0.000191	0.127957
1.435000	0.004047	0.000433	0.000291	0.000001	0.000703	196.597862	3520.662127	3533.521894	6196.709399	0.149936	0.739298	0.079004	0.053152	0.000191	0.128355
1.445000	0.004052	0.000432	0.000290	0.000001	0.000705	196.431265	3516.709536	3529.353212	6196.901341	0.149864	0.739440	0.078775	0.052851	0.000190	0.128745
1.455000	0.004056	0.000431	0.000288	0.000001	0.000708	196.267964	3512.838726	3525.272478	6197.089341	0.149793	0.739577	0.078551	0.052557	0.000189	0.129126
1.465000	0.004060	0.000430	0.000287	0.000001	0.000711	196.107854	3509.047012	3521.276725	6197.273531	0.149723	0.739712	0.078330	0.052271	0.000188	0.129499
1.475000	0.004064	0.000429	0.000286	0.000001	0.000713	195.950832	3505.331840	3517.363126	6197.453979	0.149654	0.739843	0.078114	0.051991	0.000188	0.129864
1.485000	0.004068	0.000428	0.000284	0.000001	0.000716	195.796956	3501.690801	3513.529051	6197.632325	0.149587	0.739971	0.077901	0.051718	0.000187	0.130222
1.495000	0.004071	0.000427	0.000283	0.000001	0.000718	195.641902	3498.123074	3509.772886	6197.766676	0.149519	0.740096	0.077693	0.051452	0.000186	0.130573
