TITLE = "title"
VARIABLES = "X","rhoN2","rhoO2","rhoNO","rhoN","rhoO","u","T","Tv","P","M","YN2","YO2","YNO","YN","YO"
ZONE I=150, DATAPACKING=POINT
0.005000	0.002446	0.000754	-0.000000	-0.000000	0.000000	3499.062835	347.123618	298.150010	320.033809	9.395551	0.764300	0.235700	-0.000000	-0.000000	0.000000
0.015000	0.002547	0.000785	-0.000000	-0.000000	0.000000	3497.399970	352.756891	298.150023	338.654656	9.315799	0.764300	0.235700	-0.000000	-0.000000	0.000000
0.025000	0.002652	0.000818	-0.000000	0.000000	0.000000	3495.710455	358.477706	298.150040	358.345670	9.236702	0.764300	0.235700	-0.000000	0.000000	0.000000
0.035000	0.002761	0.000852	-0.000000	-0.000000	0.000000	3493.994688	364.284582	298.150061	379.157625	9.158291	0.764300	0.235700	-0.000000	-0.000000	0.000000
0.045000	0.002875	0.000887	-0.000000	-0.000000	0.000000	3492.253166	370.175710	298.150087	401.141759	9.080596	0.764300	0.235700	-0.000000	-0.000000	0.000000
0.055000	0.002993	0.000923	-0.000000	-0.000000	0.000000	3490.486489	376.148926	298.150120	424.349440	9.003650	0.764300	0.235700	-0.000000	-0.000000	0.000000
0.065000	0.003116	0.000961	-0.000000	-0.000000	0.000000	3488.695373	382.201689	298.150161	448.831760	8.927489	0.764300	0.235700	-0.000000	-0.000000	0.000000
0.075000	0.003243	0.001000	-0.000000	-0.000000	0.000000	3486.880653	388.331048	298.150212	474.639070	8.852147	0.764300	0.235700	-0.000000	-0.000000	0.000000
0.085000	0.003374	0.001041	-0.000000	0.000000	0.000000	3485.043295	394.533623	298.150274	501.820445	8.777660	0.764300	0.235700	-0.000000	0.000000	0.000000
0.095000	0.003511	0.001083	-0.000000	0.000000	0.000000	3483.184402	400.805566	298.150350	530.423073	8.704066	0.764300	0.235700	-0.000000	0.000000	0.000000
0.105000	0.003652	0.001126	-0.000000	0.000000	0.000000	3481.305226	407.142545	298.150442	560.491566	8.631404	0.764300	0.235700	-0.000000	0.000000	0.000000
0.115000	0.003798	0.001171	-0.000000	0.000000	0.000000	3479.407174	413.539705	298.150553	592.067184	8.559713	0.764300	0.235700	-0.000000	0.000000	0.000000
0.125000	0.003949	0.001218	-0.000000	-0.000000	0.000000	3477.491818	419.991652	298.150686	625.186981	8.489036	0.764300	0.235700	-0.000000	-0.000000	0.000000
0.135000	0.004105	0.001266	-0.000000	-0.000000	0.000000	3475.560901	426.492418	298.150846	659.882860	8.419413	0.764300	0.235700	-0.000000	-0.000000	0.000000
0.145000	0.004265	0.001315	-0.000000	-0.000000	0.000000	3473.616350	433.035440	298.151037	696.180540	8.350889	0.764300	0.235700	-0.000000	-0.000000	0.000000
0.155000	0.004430	0.001366	-0.000000	-0.000000	0.000000	3471.660278	439.613535	298.151263	734.098446	8.283507	0.764300	0.235700	-0.000000	-0.000000	0.000000
0.165000	0.004600	0.001419	-0.000000	-0.000000	0.000000	3469.694992	446.218883	298.151531	773.646513	8.217314	0.764300	0.235700	-0.000000	-0.000000	0.000000
0.175000	0.004774	0.001472	-0.000000	-0.000000	0.000000	3467.723002	452.843004	298.151845	814.824930	8.152356	0.764300	0.235700	-0.000000	-0.000000	0.000000
0.185000	0.004952	0.001527	-0.000000	0.000000	0.000000	3465.747024	459.476747	298.152212	857.622811	8.088680	0.764300	0.235700	-0.000000	0.000000	0.000000
0.195000	0.005134	0.001583	0.000000	0.000000	0.000000	3463.769982	466.110277	298.152640	902.016837	8.026335	0.764300	0.235700	0.000000	0.000000	0.000000
0.205000	0.005320	0.001641	0.000000	0.000000	0.000000	3461.795014	472.733071	298.153137	947.969860	7.965370	0.764300	0.235700	0.000000	0.000000	0.000000
0.215000	0.005510	0.001699	0.000000	0.000000	0.000000	3459.825471	479.333916	298.153709	995.429517	7.905834	0.764300	0.235700	0.000000	0.000000	0.000000
0.225000	0.005702	0.001758	0.000000	0.000000	0.000000	3457.864913	485.900916	298.154367	1044.326861	7.847779	0.764300	0.235700	0.000000	0.000000	0.000000
0.235000	0.005897	0.001819	0.000000	0.000000	0.000000	3455.917111	492.421504	298.155119	1094.575061	7.791254	0.764300	0.235700	0.000000	0.000000	0.000000
0.245000	0.006095	0.001880	0.000000	-0.000000	0.000000	3453.986040	498.882461	298.155975	1146.068189	7.736313	0.764300	0.235700	0.000000	-0.000000	0.000000
0.255000	0.006294	0.001941	-0.000000	0.000000	0.000000	3452.075867	505.269945	298.156943	1198.680156	7.683006	0.764300	0.235700	-0.000000	0.000000	0.000000
0.265000	0.006494	0.002003	-0.000000	0.000000	0.000000	3450.190946	511.569529	298.158034	1252.263822	7.631385	0.764300	0.235700	-0.000000	0.000000	0.000000
0.275000	0.006695	0.002065	-0.000000	0.000000	0.000000	3448.335801	517.766242	298.159255	1306.650340	7.581502	0.764300	0.235700	-0.000000	0.000000	0.000000
0.285000	0.006896	0.002127	0.000000	0.000000	0.000000	3446.515110	523.844629	298.160618	1361.648786	7.533408	0.764300	0.235700	0.000000	0.000000	0.000000
0.295000	0.007096	0.002188	0.000000	0.000000	0.000000	3444.733688	529.788817	298.162128	1417.046109	7.487155	0.764300	0.235700	0.000000	0.000000	0.000000
0.305000	0.007295	0.002250	0.000000	-0.000000	0.000000	3442.996460	535.582583	298.163795	1472.607463	7.442793	0.764300	0.235700	0.000000	-0.000000	0.000000
0.315000	0.007491	0.002310	0.000000	0.000000	0.000000	3441.308438	541.209447	298.165624	1528.076963	7.400371	0.764300	0.235700	0.000000	0.000000	0.000000
0.325000	0.007684	0.002370	0.000000	-0.000000	0.000000	3439.674693	546.652762	298.167621	1583.178890	7.359938	0.764300	0.235700	0.000000	-0.000000	0.000000
0.335000	0.007872	0.002428	0.000000	-0.000000	0.000000	3438.100321	551.895816	298.169789	1637.619396	7.321542	0.764300	0.235700	0.000000	-0.000000	0.000000
0.345000	0.008056	0.002484	0.000000	-0.000000	0.000000	3436.590411	556.921947	298.172132	1691.088706	7.285229	0.764300	0.235700	0.000000	-0.000000	0.000000
0.355000	0.008234	0.002539	0.000000	-0.000000	0.000000	3435.150006	561.714661	298.174648	1743.263834	7.251042	0.764300	0.235700	0.000000	-0.000000	0.000000
0.365000	0.008404	0.002592	0.000000	0.000000	0.000000	3433.784066	566.257754	298.177337	1793.811800	7.219024	0.764300	0.235700	0.000000	0.000000	0.000000
0.375000	0.008567	0.002642	0.000000	0.000000	0.000000	3432.497428	570.535444	298.180196	1842.393325	7.189215	0.764300	0.235700	0.000000	0.000000	0.000000
0.385000	0.008721	0.002690	0.000000	-0.000000	0.000000	3431.294764	574.532506	298.183219	1888.666943	7.161653	0.764300	0.235700	0.000000	-0.000000	0.000000
0.395000	0.008866	0.002734	0.000000	-0.000000	0.000000	3430.180539	578.234397	298.186399	1932.293494	7.136374	0.764300	0.235700	0.000000	-0.000000	0.000000
0.405000	0.008999	0.002775	0.000000	0.000000	0.000000	3429.158971	581.627398	298.189728	1972.940880	7.113409	0.764300	0.235700	0.000000	0.000000	0.000000
0.415000	0.009122	0.002813	0.000000	0.000000	0.000000	3428.233989	584.698737	298.193194	2010.289021	7.092788	0.764300	0.235700	0.000000	0.000000	0.000000
0.425000	0.009231	0.002847	0.000000	-0.000000	0.000000	3427.409197	587.436715	298.196784	2044.034875	7.074536	0.764300	0.235700	0.000000	-0.000000	0.000000
0.435000	0.009328	0.002877	0.000000	-0.000000	0.000000	3426.687833	589.830824	298.200485	2073.897401	7.058678	0.764300	0.235700	0.000000	-0.000000	0.000000
0.445000	0.009411	0.002902	0.000000	0.000000	0.000000	3426.072740	591.871851	298.204282	2099.622341	7.045232	0.764300	0.235700	0.000000	0.000000	0.000000
0.455000	0.009480	0.002924	0.000000	0.000000	0.000000	3425.566332	593.551975	298.208157	2120.986689	7.034214	0.764300	0.235700	0.000000	0.000000	0.000000
0.465000	0.009534	0.002940	0.000000	-0.000000	0.000000	3425.170571	594.864847	298.212094	2137.802707	7.025636	0.764300	0.235700	0.000000	-0.000000	0.000000
0.475000	0.009573	0.002952	0.000000	-0.000000	0.000000	3424.886946	595.805658	298.216075	2149.921375	7.019505	0.764300	0.235700	0.000000	-0.000000	0.000000
0.485000	0.009597	0.002960	0.000000	-0.000000	0.000000	3424.716456	596.371187	298.220080	2157.235172	7.015827	0.764300	0.235700	0.000000	-0.000000	0.000000
0.495000	0.009605	0.002962	0.000000	-0.000000	0.000000	3424.659600	596.559834	298.224092	2159.680094	7.014601	0.764300	0.235700	0.000000	-0.000000	0.000000
0.505000	0.009597	0.002960	0.000000	-0.000000	0.000000	3424.716372	596.371635	298.228091	2157.236844	7.015824	0.764300	0.235700	0.000000	-0.000000	0.000000
0.515000	0.009573	0.002952	0.000000	-0.000000	0.000000	3424.886265	595.808253	298.232058	2149.931166	7.019489	0.764300	0.235700	0.000000	-0.000000	0.000000
0.525000	0.009534	0.002940	0.000000	-0.000000	0.000000	3425.168276	594.872963	298.235976	2137.833304	7.025583	0.764300	0.235700	0.000000	-0.000000	0.000000
0.535000	0.009480	0.002924	0.000000	-0.000000	0.000000	3425.560917	593.570602	298.239827	2121.056603	7.034093	0.764300	0.235700	0.000000	-0.000000	0.000000
0.545000	0.009411	0.002902	0.000000	-0.000000	0.000000	3426.062237	591.907521	298.243594	2099.755313	7.044998	0.764300	0.235700	0.000000	-0.000000	0.000000
0.555000	0.009328	0.002877	0.000000	-0.000000	0.000000	3426.669842	589.891504	298.247261	2074.121647	7.058278	0.764300	0.235700	0.000000	-0.000000	0.000000
0.565000	0.009232	0.002847	0.000000	-0.000000	0.000000	3427.380924	587.531687	298.250815	2044.382202	7.073906	0.764300	0.235700	0.000000	-0.000000	0.000000
0.575000	0.009122	0.002813	0.000000	-0.000000	0.000000	3428.192289	584.838454	298.254241	2010.793849	7.091854	0.764300	0.235700	0.000000	-0.000000	0.000000
0.585000	0.009000	0.002775	0.000000	-0.000000	0.000000	3429.100397	581.823329	298.257528	1973.639210	7.112089	0.764300	0.235700	0.000000	-0.000000	0.000000
0.595000	0.008866	0.002734	0.000000	-0.000000	0.000000	3430.101392	578.498860	298.260666	1933.221861	7.134578	0.764300	0.235700	0.000000	-0.000000	0.000000
0.605000	0.008722	0.002690	0.000000	-0.000000	0.000000	3431.191147	574.878493	298.263647	1889.861380	7.159282	0.764300	0.235700	0.000000	-0.000000	0.000000
0.615000	0.008568	0.002642	0.000000	-0.000000	0.000000	3432.365300	570.976442	298.266466	1843.888389	7.186162	0.764300	0.235700	0.000000	-0.000000	0.000000
0.625000	0.008405	0.002592	0.000000	-0.000000	0.000000	3433.619298	566.807566	298.269117	1795.639677	7.215175	0.764300	0.235700	0.000000	-0.000000	0.000000
0.635000	0.008234	0.002539	0.000000	-0.000000	0.000000	3434.948432	562.387229	298.271597	1745.453552	7.246279	0.764300	0.235700	0.000000	-0.000000	0.000000
0.645000	0.008056	0.002485	0.000000	-0.000000	0.000000	3436.347883	557.731184	298.273907	1693.665474	7.279428	0.764300	0.235700	0.000000	-0.000000	0.000000
0.655000	0.007873	0.002428	0.000000	-0.000000	0.000000	3437.812755	552.855442	298.276047	1640.604080	7.314573	0.764300	0.235700	0.000000	-0.000000	0.000000
0.665000	0.007684	0.002370	0.000000	-0.000000	0.000000	3439.338116	547.776153	298.278020	1586.587630	7.351668	0.764300	0.235700	0.000000	-0.000000	0.000000
0.675000	0.007492	0.002310	0.000000	-0.000000	0.000000	3440.919029	542.509499	298.279830	1531.920941	7.390662	0.764300	0.235700	0.000000	-0.000000	0.000000
0.685000	0.007296	0.002250	0.000000	-0.000000	0.000000	3442.550586	537.071586	298.281481	1476.892802	7.431506	0.764300	0.235700	0.000000	-0.000000	0.000000
0.695000	0.007097	0.002189	0.000000	-0.000000	0.000000	3444.227938	531.478348	298.282981	1421.773904	7.474148	0.764300	0.235700	0.000000	-0.000000	0.000000
0.705000	0.006897	0.002127	0.000000	-0.000000	0.000000	3445.946322	525.745459	298.284337	1366.815252	7.518537	0.764300	0.235700	0.000000	-0.000000	0.000000
0.715000	0.006697	0.002065	0.000000	-0.000000	0.000000	3447.701082	519.888257	298.285557	1312.247059	7.564621	0.764300	0.235700	0.000000	-0.000000	0.000000
0.725000	0.006496	0.002003	0.000000	-0.000000	0.000000	3449.487693	513.921673	298.286649	1258.278077	7.612349	0.764300	0.235700	0.000000	-0.000000	0.000000
0.735000	0.006295	0.001941	0.000000	-0.000000	0.000000	3451.301777	507.860174	298.287622	1205.095329	7.661670	0.764300	0.235700	0.000000	-0.000000	0.000000
0.745000	0.006096	0.001880	0.000000	-0.000000	0.000000	3453.139119	501.717708	298.288485	1152.864204	7.712531	0.764300	0.235700	0.000000	-0.000000	0.000000
0.755000	0.005899	0.001819	0.000000	-0.000000	0.000000	3454.995680	495.507670	298.289247	1101.728867	7.764883	0.764300	0.235700	0.000000	-0.000000	0.000000
0.765000	0.005704	0.001759	0.000000	-0.000000	0.000000	3456.867605	489.242861	298.289917	1051.812927	7.818673	0.764300	0.235700	0.000000	-0.000000	0.000000
0.775000	0.005511	0.001700	0.000000	-0.000000	0.000000	3458.751229	482.935469	298.290503	1003.220327	7.873854	0.764300	0.235700	0.000000	-0.000000	0.000000
0.785000	0.005322	0.001641	0.000000	-0.000000	0.000000	3460.643087	476.597047	298.291014	956.036403	7.930375	0.764300	0.235700	0.000000	-0.000000	0.000000
0.795000	0.005136	0.001584	0.000000	-0.000000	0.000000	3462.539910	470.238507	298.291457	910.329070	7.988188	0.764300	0.235700	0.000000	-0.000000	0.000000
0.805000	0.004954	0.001528	0.000000	-0.000000	0.000000	3464.438633	463.870111	298.291840	866.150104	8.047246	0.764300	0.235700	0.000000	-0.000000	0.000000
0.815000	0.004776	0.001473	0.000000	-0.000000	0.000000	3466.336387	457.501473	298.292170	823.536466	8.107501	0.764300	0.235700	0.000000	-0.000000	0.000000
0.825000	0.004602	0.001419	0.000000	-0.000000	0.000000	3468.230502	451.141566	298.292452	782.511658	8.168910	0.764300	0.235700	0.000000	-0.000000	0.000000
0.835000	0.004432	0.001367	0.000000	-0.000000	0.000000	3470.118503	444.798733	298.292693	743.087071	8.231427	0.764300	0.235700	0.000000	-0.000000	0.000000
0.845000	0.004335	0.001336	0.000001	0.000000	0.000001	3431.921234	565.525942	201.000000	924.242398	7.219301	0.764258	0.235532	0.000088	0.000000	0.000121
0.855000	0.020530	0.005333	0.000568	0.000002	0.000777	860.547649	4874.640030	3843.570708	39198.771312	0.588439	0.754485	0.195994	0.020880	0.000069	0.028573
0.865000	0.030280	0.006155	0.002102	0.000008	0.002367	486.204639	4351.899397	4211.934002	53978.708281	0.346227	0.740125	0.150452	0.051385	0.000189	0.057849
0.875000	0.033831	0.005627	0.003211	0.000011	0.003559	392.817516	4053.717239	4093.653812	57760.883851	0.286825	0.731651	0.121695	0.069447	0.000231	0.076976
0.885000	0.035439	0.005192	0.003614	0.000011	0.004334	353.549186	3902.565841	3952.327623	59035.599918	0.261384	0.729347	0.106853	0.074374	0.000236	0.089191
0.895000	0.036414	0.004937	0.003656	0.000012	0.004874	329.251230	3812.169750	3849.257623	59633.205958	0.245182	0.729865	0.098945	0.073275	0.000231	0.097684
0.905000	0.037133	0.004786	0.003565	0.000011	0.005281	310.346709	3750.150296	3776.562845	60015.492284	0.232233	0.731302	0.094252	0.070211	0.000224	0.104011
0.915000	0.037706	0.004688	0.003440	0.000011	0.005604	294.103898	3703.992780	3723.322780	60306.867179	0.220877	0.732869	0.091124	0.066867	0.000218	0.108922
0.925000	0.038179	0.004619	0.003319	0.000011	0.005866	279.545582	3668.158030	3682.758186	60548.097296	0.210538	0.734288	0.088842	0.063838	0.000212	0.112819
0.935000	0.038573	0.004567	0.003214	0.000011	0.006081	266.234025	3639.776029	3651.027309	60755.656227	0.200965	0.735486	0.087079	0.061282	0.000208	0.115945
0.945000	0.038903	0.004526	0.003127	0.000011	0.006258	253.928707	3617.122703	3625.867476	60937.727347	0.192025	0.736465	0.085674	0.059193	0.000204	0.118464
0.955000	0.039180	0.004493	0.003056	0.000011	0.006403	242.474181	3599.027866	3605.827094	61099.183796	0.183629	0.737252	0.084540	0.057513	0.000201	0.120494
0.965000	0.039411	0.004466	0.003000	0.000011	0.006523	231.758090	3584.623359	3589.884873	61243.356474	0.175718	0.737879	0.083620	0.056175	0.000199	0.122127
0.975000	0.039605	0.004445	0.002956	0.000011	0.006621	221.693240	3573.226581	3577.266134	61372.723418	0.168240	0.738375	0.082876	0.055117	0.000197	0.123436
0.985000	0.039767	0.004429	0.002922	0.000011	0.006701	212.214001	3564.284043	3567.355042	61489.708709	0.161161	0.738765	0.082275	0.054286	0.000195	0.124480
0.995000	0.039896	0.004415	0.002895	0.000010	0.006765	203.137847	3557.292780	3559.594726	61583.682144	0.154354	0.739070	0.081789	0.053633	0.000194	0.125314
1.005000	0.040210	0.004429	0.002890	0.000011	0.006849	197.781292	3551.910239	3553.673181	61986.243288	0.150350	0.739299	0.081435	0.053144	0.000193	0.125929
1.015000	0.040251	0.004418	0.002872	0.000010	0.006880	197.757401	3547.203187	3548.666143	61974.914221	0.150395	0.739480	0.081172	0.052759	0.000192	0.126396
1.025000	0.040289	0.004411	0.002858	0.000010	0.006904	197.576853	3543.779699	3544.887994	61979.488306	0.150303	0.739616	0.080979	0.052469	0.000191	0.126744
1.035000	0.040316	0.004406	0.002848	0.000010	0.006922	197.451616	3541.238618	3542.068092	61982.203578	0.150242	0.739719	0.080837	0.052251	0.000191	0.127003
1.045000	0.040337	0.004402	0.002840	0.000010	0.006935	197.358288	3539.347497	3539.966866	61984.234600	0.150196	0.739795	0.080731	0.052088	0.000191	0.127196
1.055000	0.040353	0.004399	0.002834	0.000010	0.006945	197.288797	3537.938023	3538.400464	61985.742506	0.150162	0.739852	0.080652	0.051966	0.000190	0.127339
1.065000	0.040364	0.004397	0.002830	0.000010	0.006953	197.236978	3536.886750	3537.232086	61986.865793	0.150136	0.739895	0.080593	0.051875	0.000190	0.127446
1.075000	0.040373	0.004395	0.002827	0.000010	0.006958	197.198314	3536.102295	3536.360217	61987.703443	0.150117	0.739927	0.080550	0.051808	0.000190	0.127526
1.085000	0.040379	0.004394	0.002824	0.000010	0.006962	197.169455	3535.516768	3535.709416	61988.328453	0.150103	0.739950	0.080517	0.051757	0.000190	0.127586
1.095000	0.040384	0.004393	0.002823	0.000010	0.006966	197.147910	3535.079634	3535.223533	61988.794962	0.150092	0.739968	0.080492	0.051719	0.000190	0.127631
1.105000	0.040388	0.004392	0.002821	0.000010	0.006968	197.131823	3534.753238	3534.860726	61989.143242	0.150084	0.739981	0.080474	0.051691	0.000190	0.127664
1.115000	0.040390	0.004392	0.002820	0.000010	0.006970	197.119809	3534.509502	3534.589793	61989.403294	0.150079	0.739991	0.080460	0.051670	0.000190	0.127689
1.125000	0.040392	0.004391	0.002820	0.000010	0.006971	197.110838	3534.327479	3534.387454	61989.597490	0.150074	0.739998	0.080450	0.051655	0.000189	0.127707
1.135000	0.040394	0.004391	0.002819	0.000010	0.006972	197.104137	3534.191535	3534.236335	61989.742518	0.150071	0.740004	0.080443	0.051643	0.000189	0.127721
1.145000	0.040395	0.004391	0.002819	0.000010	0.006973	197.099132	3534.090002	3534.123466	61989.850832	0.150068	0.740008	0.080437	0.051634	0.000189	0.127731
1.155000	0.040396	0.004391	0.002818	0.000010	0.006973	197.095394	3534.014166	3534.039163	61989.931730	0.150067	0.740011	0.080433	0.051628	0.000189	0.127739
1.165000	0.040396	0.004391	0.002818	0.000010	0.006973	197.092602	3533.957523	3533.976195	61989.992153	0.150065	0.740013	0.080430	0.051623	0.000189	0.127745
1.175000	0.040397	0.004390	0.002818	0.000010	0.006974	197.090517	3533.915215	3533.929162	61990.037284	0.150064	0.740015	0.080427	0.051619	0.000189	0.127749
1.185000	0.040397	0.004390	0.002818	0.000010	0.006974	197.088959	3533.883613	3533.894032	61990.070993	0.150063	0.740016	0.080425	0.051616	0.000189	0.127753
1.195000	0.040398	0.004390	0.002818	0.000010	0.006974	197.087796	3533.860009	3533.867791	61990.096172	0.150063	0.740017	0.080424	0.051614	0.000189	0.127755
1.205000	0.040398	0.004390	0.002818	0.000010	0.006974	197.086927	3533.842378	3533.848191	61990.114980	0.150062	0.740018	0.080423	0.051613	0.000189	0.127757
1.215000	0.040398	0.004390	0.002818	0.000010	0.006974	197.086278	3533.829208	3533.833550	61990.129028	0.150062	0.740018	0.080422	0.051612	0.000189	0.127758
1.225000	0.040398	0.004390	0.002817	0.000010	0.006974	197.085793	3533.819371	3533.822615	61990.139521	0.150062	0.740019	0.080422	0.051611	0.000189	0.127759
1.235000	0.040398	0.004390	0.002817	0.000010	0.006974	197.085430	3533.812024	3533.814447	61990.147359	0.150062	0.740019	0.080421	0.051610	0.000189	0.127760
1.245000	0.040398	0.004390	0.002817	0.000010	0.006975	197.085160	3533.806536	3533.808346	61990.153214	0.150062	0.740019	0.080421	0.051610	0.000189	0.127760
1.255000	0.040398	0.004390	0.002817	0.000010	0.006975	197.084958	3533.802437	3533.803789	61990.157587	0.150061	0.740020	0.080421	0.051609	0.000189	0.127761
1.265000	0.040398	0.004390	0.002817	0.000010	0.006975	197.084807	3533.799375	3533.800385	61990.160853	0.150061	0.740020	0.080421	0.051609	0.000189	0.127761
1.275000	0.040398	0.004390	0.002817	0.000010	0.006975	197.084694	3533.797089	3533.797843	61990.163293	0.150061	0.740020	0.080421	0.051609	0.000189	0.127761
1.285000	0.040398	0.004390	0.002817	0.000010	0.006975	197.084610	3533.795382	3533.795945	61990.165115	0.150061	0.740020	0.080420	0.051609	0.000189	0.127762
1.295000	0.040398	0.004390	0.002817	0.000010	0.006975	197.084547	3533.794107	3533.794527	61990.166477	0.150061	0.740020	0.080420	0.051609	0.000189	0.127762
1.305000	0.040398	0.004390	0.002817	0.000010	0.006975	197.084500	3533.793154	3533.793469	61990.167493	0.150061	0.740020	0.080420	0.051609	0.000189	0.127762
1.315000	0.040398	0.004390	0.002817	0.000010	0.006975	197.084465	3533.792443	3533.792678	61990.168252	0.150061	0.740020	0.080420	0.051609	0.000189	0.127762
1.325000	0.040398	0.004390	0.002817	0.000010	0.006975	197.084439	3533.791913	3533.792088	61990.168819	0.150061	0.740020	0.080420	0.051608	0.000189	0.127762
1.335000	0.040398	0.004390	0.002817	0.000010	0.006975	197.084419	3533.791516	3533.791647	61990.169242	0.150061	0.740020	0.080420	0.051608	0.000189	0.127762
1.345000	0.040398	0.004390	0.002817	0.000010	0.006975	197.084404	3533.791221	3533.791319	61990.169558	0.150061	0.740020	0.080420	0.051608	0.000189	0.127762
1.355000	0.040398	0.004390	0.002817	0.000010	0.006975	197.084394	3533.791000	3533.791073	61990.169794	0.150061	0.740020	0.080420	0.051608	0.000189	0.127762
1.365000	0.040398	0.004390	0.002817	0.000010	0.006975	197.084385	3533.790835	3533.790889	61990.169969	0.150061	0.740020	0.080420	0.051608	0.000189	0.127762
1.375000	0.040398	0.004390	0.002817	0.000010	0.006975	197.084379	3533.790712	3533.790752	61990.170100	0.150061	0.740020	0.080420	0.051608	0.000189	0.127762
1.385000	0.040398	0.004390	0.002817	0.000010	0.006975	197.084375	3533.790619	3533.790650	61990.170197	0.150061	0.740020	0.080420	0.051608	0.000189	0.127762
1.395000	0.040398	0.004390	0.002817	0.000010	0.006975	197.084371	3533.790550	3533.790573	61990.170268	0.150061	0.740020	0.080420	0.051608	0.000189	0.127762
1.405000	0.040398	0.004390	0.002817	0.000010	0.006975	197.084369	3533.790499	3533.790516	61990.170321	0.150061	0.740020	0.080420	0.051608	0.000189	0.127762
1.415000	0.040398	0.004390	0.002817	0.000010	0.006975	197.084367	3533.790460	3533.790472	61990.170360	0.150061	0.740020	0.080420	0.051608	0.000189	0.127762
1.425000	0.040398	0.004390	0.002817	0.000010	0.006975	197.084365	3533.790430	3533.790439	61990.170388	0.150061	0.740020	0.080420	0.051608	0.000189	0.127762
1.435000	0.040398	0.004390	0.002817	0.000010	0.006975	197.084364	3533.790407	3533.790415	61990.170408	0.150061	0.740020	0.080420	0.051608	0.000189	0.127762
1.445000	0.040398	0.004390	0.002817	0.000010	0.006975	197.084364	3533.790390	3533.790395	61990.170422	0.150061	0.740020	0.080420	0.051608	0.000189	0.127762
1.455000	0.040398	0.004390	0.002817	0.000010	0.006975	197.084363	3533.790376	3533.790380	61990.170432	0.150061	0.740020	0.080420	0.051608	0.000189	0.127762
1.465000	0.040398	0.004390	0.002817	0.000010	0.006975	197.084363	3533.790366	3533.790369	61990.170438	0.150061	0.740020	0.080420	0.051608	0.000189	0.127762
1.475000	0.040398	0.004390	0.002817	0.000010	0.006975	197.084362	3533.790357	3533.790359	61990.170441	0.150061	0.740020	0.080420	0.051608	0.000189	0.127762
1.485000	0.040398	0.004390	0.002817	0.000010	0.006975	197.084362	3533.790350	3533.790351	61990.170442	0.150061	0.740020	0.080420	0.051608	0.000189	0.127762
1.495000	0.040398	0.004390	0.002817	0.000010	0.006975	197.084362	3533.790344	3533.790345	61990.170442	0.150061	0.740020	0.080420	0.051608	0.000189	0.127762
