TITLE = "title"
VARIABLES = "X","rhoN2","rhoO2","rhoNO","rhoN","rhoO","u","T","Tv","P","M","YN2","YO2","YNO","YN","YO"
ZONE I=150, DATAPACKING=POINT
0.005000	0.000245	0.000075	0.000000	0.000000	0.000000	3499.062835	347.123618	298.150001	32.003381	9.395551	0.764300	0.235700	0.000000	0.000000	0.000000
0.015000	0.000255	0.000079	0.000000	-0.000000	0.000000	3497.399971	352.756890	298.150002	33.865466	9.315799	0.764300	0.235700	0.000000	-0.000000	0.000000
0.025000	0.000265	0.000082	0.000000	-0.000000	0.000000	3495.710455	358.477705	298.150004	35.834567	9.236702	0.764300	0.235700	0.000000	-0.000000	0.000000
0.035000	0.000276	0.000085	0.000000	-0.000000	0.000000	3493.994688	364.284581	298.150006	37.915762	9.158291	0.764300	0.235700	0.000000	-0.000000	0.000000
0.045000	0.000287	0.000089	0.000000	-0.000000	0.000000	3492.253166	370.175707	298.150009	40.114176	9.080596	0.764300	0.235700	0.000000	-0.000000	0.000000
0.055000	0.000299	0.000092	0.000000	-0.000000	0.000000	3490.486489	376.148923	298.150012	42.434944	9.003650	0.764300	0.235700	0.000000	-0.000000	0.000000
0.065000	0.000312	0.000096	0.000000	-0.000000	0.000000	3488.695374	382.201684	298.150016	44.883175	8.927489	0.764300	0.235700	0.000000	-0.000000	0.000000
0.075000	0.000324	0.000100	0.000000	0.000000	0.000000	3486.880654	388.331043	298.150021	47.463906	8.852147	0.764300	0.235700	0.000000	0.000000	0.000000
0.085000	0.000337	0.000104	0.000000	0.000000	0.000000	3485.043295	394.533615	298.150027	50.182043	8.777660	0.764300	0.235700	0.000000	0.000000	0.000000
0.095000	0.000351	0.000108	0.000000	0.000000	0.000000	3483.184403	400.805556	298.150035	53.042306	8.704066	0.764300	0.235700	0.000000	0.000000	0.000000
0.105000	0.000365	0.000113	0.000000	0.000000	0.000000	3481.305227	407.142532	298.150044	56.049155	8.631404	0.764300	0.235700	0.000000	0.000000	0.000000
0.115000	0.000380	0.000117	0.000000	0.000000	0.000000	3479.407175	413.539690	298.150055	59.206716	8.559714	0.764300	0.235700	0.000000	0.000000	0.000000
0.125000	0.000395	0.000122	0.000000	0.000000	0.000000	3477.491819	419.991633	298.150069	62.518695	8.489036	0.764300	0.235700	0.000000	0.000000	0.000000
0.135000	0.000410	0.000127	0.000000	-0.000000	0.000000	3475.560904	426.492394	298.150085	65.988282	8.419413	0.764300	0.235700	0.000000	-0.000000	0.000000
0.145000	0.000427	0.000132	0.000000	-0.000000	0.000000	3473.616353	433.035410	298.150104	69.618049	8.350889	0.764300	0.235700	0.000000	-0.000000	0.000000
0.155000	0.000443	0.000137	0.000000	0.000000	0.000000	3471.660281	439.613499	298.150126	73.409838	8.283508	0.764300	0.235700	0.000000	0.000000	0.000000
0.165000	0.000460	0.000142	0.000000	0.000000	0.000000	3469.694996	446.218840	298.150153	77.364644	8.217315	0.764300	0.235700	0.000000	0.000000	0.000000
0.175000	0.000477	0.000147	0.000000	0.000000	0.000000	3467.723007	452.842952	298.150184	81.482483	8.152357	0.764300	0.235700	0.000000	0.000000	0.000000
0.185000	0.000495	0.000153	0.000000	0.000000	0.000000	3465.747030	459.476684	298.150221	85.762269	8.088681	0.764300	0.235700	0.000000	0.000000	0.000000
0.195000	0.000513	0.000158	0.000000	-0.000000	0.000000	3463.769990	466.110202	298.150264	90.201669	8.026336	0.764300	0.235700	0.000000	-0.000000	0.000000
0.205000	0.000532	0.000164	0.000000	-0.000000	0.000000	3461.795024	472.732981	298.150314	94.796968	7.965370	0.764300	0.235700	0.000000	-0.000000	0.000000
0.215000	0.000551	0.000170	0.000000	-0.000000	0.000000	3459.825482	479.333810	298.150371	99.542929	7.905835	0.764300	0.235700	0.000000	-0.000000	0.000000
0.225000	0.000570	0.000176	0.000000	0.000000	0.000000	3457.864926	485.900791	298.150437	104.432659	7.847780	0.764300	0.235700	0.000000	0.000000	0.000000
0.235000	0.000590	0.000182	0.000000	-0.000000	0.000000	3455.917127	492.421357	298.150512	109.457473	7.791256	0.764300	0.235700	0.000000	-0.000000	0.000000
0.245000	0.000609	0.000188	0.000000	0.000000	0.000000	3453.986058	498.882289	298.150597	114.606779	7.736314	0.764300	0.235700	0.000000	0.000000	0.000000
0.255000	0.000629	0.000194	0.000000	0.000000	0.000000	3452.075888	505.269746	298.150694	119.867967	7.683008	0.764300	0.235700	0.000000	0.000000	0.000000
0.265000	0.000649	0.000200	0.000000	0.000000	0.000000	3450.190970	511.569297	298.150803	125.226325	7.631387	0.764300	0.235700	0.000000	0.000000	0.000000
0.275000	0.000670	0.000206	0.000000	0.000000	0.000000	3448.335829	517.765975	298.150926	130.664966	7.581504	0.764300	0.235700	0.000000	0.000000	0.000000
0.285000	0.000690	0.000213	0.000000	0.000000	0.000000	3446.515142	523.844323	298.151062	136.164798	7.533411	0.764300	0.235700	0.000000	0.000000	0.000000
0.295000	0.000710	0.000219	0.000000	0.000000	0.000000	3444.733724	529.788467	298.151213	141.704516	7.487158	0.764300	0.235700	0.000000	0.000000	0.000000
0.305000	0.000729	0.000225	0.000000	0.000000	0.000000	3442.996501	535.582185	298.151380	147.260635	7.442796	0.764300	0.235700	0.000000	0.000000	0.000000
0.315000	0.000749	0.000231	0.000000	0.000000	0.000000	3441.308485	541.208996	298.151562	152.807567	7.400374	0.764300	0.235700	0.000000	0.000000	0.000000
0.325000	0.000768	0.000237	0.000000	0.000000	0.000000	3439.674746	546.652253	298.151762	158.317739	7.359942	0.764300	0.235700	0.000000	0.000000	0.000000
0.335000	0.000787	0.000243	0.000000	0.000000	0.000000	3438.100381	551.895244	298.151979	163.761767	7.321546	0.764300	0.235700	0.000000	0.000000	0.000000
0.345000	0.000806	0.000248	0.000000	0.000000	0.000000	3436.590478	556.921308	298.152213	169.108673	7.285233	0.764300	0.235700	0.000000	0.000000	0.000000
0.355000	0.000823	0.000254	0.000000	0.000000	0.000000	3435.150080	561.713950	298.152465	174.326159	7.251046	0.764300	0.235700	0.000000	0.000000	0.000000
0.365000	0.000840	0.000259	0.000000	0.000000	0.000000	3433.784148	566.256965	298.152734	179.380926	7.219029	0.764300	0.235700	0.000000	0.000000	0.000000
0.375000	0.000857	0.000264	0.000000	0.000000	0.000000	3432.497519	570.534574	298.153020	184.239047	7.189221	0.764300	0.235700	0.000000	0.000000	0.000000
0.385000	0.000872	0.000269	0.000000	0.000000	0.000000	3431.294863	574.531549	298.153322	188.866374	7.161660	0.764300	0.235700	0.000000	0.000000	0.000000
0.395000	0.000887	0.000273	0.000000	0.000000	0.000000	3430.180647	578.233350	298.153640	193.228993	7.136381	0.764300	0.235700	0.000000	0.000000	0.000000
0.405000	0.000900	0.000278	0.000000	0.000000	0.000000	3429.159089	581.626256	298.153973	197.293694	7.113416	0.764300	0.235700	0.000000	0.000000	0.000000
0.415000	0.000912	0.000281	0.000000	0.000000	0.000000	3428.234117	584.697497	298.154320	201.028469	7.092795	0.764300	0.235700	0.000000	0.000000	0.000000
0.425000	0.000923	0.000285	0.000000	0.000000	0.000000	3427.409335	587.435375	298.154679	204.403013	7.074545	0.764300	0.235700	0.000000	0.000000	0.000000
0.435000	0.000933	0.000288	0.000000	0.000000	0.000000	3426.687981	589.829381	298.155049	207.389224	7.058687	0.764300	0.235700	0.000000	0.000000	0.000000
0.445000	0.000941	0.000290	0.000000	0.000000	0.000000	3426.072898	591.870303	298.155429	209.961675	7.045242	0.764300	0.235700	0.000000	0.000000	0.000000
0.455000	0.000948	0.000292	0.000000	0.000000	0.000000	3425.566500	593.550320	298.155817	212.098067	7.034224	0.764300	0.235700	0.000000	0.000000	0.000000
0.465000	0.000953	0.000294	-0.000000	-0.000000	0.000000	3425.170750	594.863084	298.156210	213.779626	7.025646	0.764300	0.235700	-0.000000	-0.000000	0.000000
0.475000	0.000957	0.000295	-0.000000	-0.000000	0.000000	3424.887135	595.803787	298.156609	214.991451	7.019517	0.764300	0.235700	-0.000000	-0.000000	0.000000
0.485000	0.000960	0.000296	-0.000000	-0.000000	0.000000	3424.716654	596.369209	298.157009	215.722789	7.015839	0.764300	0.235700	-0.000000	-0.000000	0.000000
0.495000	0.000960	0.000296	-0.000000	-0.000000	0.000000	3424.659807	596.557750	298.157411	215.967242	7.014614	0.764300	0.235700	-0.000000	-0.000000	0.000000
0.505000	0.000960	0.000296	-0.000000	0.000000	0.000000	3424.716588	596.369446	298.157811	215.722879	7.015837	0.764300	0.235700	-0.000000	0.000000	0.000000
0.515000	0.000957	0.000295	-0.000000	-0.000000	0.000000	3424.886489	595.805962	298.158208	214.992276	7.019503	0.764300	0.235700	-0.000000	-0.000000	0.000000
0.525000	0.000953	0.000294	-0.000000	-0.000000	0.000000	3425.168507	594.870572	298.158599	213.782457	7.025598	0.764300	0.235700	-0.000000	-0.000000	0.000000
0.535000	0.000948	0.000292	-0.000000	-0.000000	0.000000	3425.561155	593.568116	298.158985	212.104757	7.034108	0.764300	0.235700	-0.000000	-0.000000	0.000000
0.545000	0.000941	0.000290	-0.000000	-0.000000	0.000000	3426.062482	591.904943	298.159362	209.974602	7.045014	0.764300	0.235700	-0.000000	-0.000000	0.000000
0.555000	0.000933	0.000288	-0.000000	-0.000000	0.000000	3426.670093	589.888839	298.159729	207.411213	7.058295	0.764300	0.235700	-0.000000	-0.000000	0.000000
0.565000	0.000923	0.000285	-0.000000	-0.000000	0.000000	3427.381179	587.528940	298.160084	204.437249	7.073923	0.764300	0.235700	-0.000000	-0.000000	0.000000
0.575000	0.000912	0.000281	-0.000000	-0.000000	0.000000	3428.192548	584.835630	298.160427	201.078399	7.091872	0.764300	0.235700	-0.000000	-0.000000	0.000000
0.585000	0.000900	0.000278	-0.000000	-0.000000	0.000000	3429.100658	581.820434	298.160756	197.362924	7.112108	0.764300	0.235700	-0.000000	-0.000000	0.000000
0.595000	0.000887	0.000273	-0.000000	-0.000000	0.000000	3430.101655	578.495900	298.161070	193.321182	7.134597	0.764300	0.235700	-0.000000	-0.000000	0.000000
0.605000	0.000872	0.000269	-0.000000	-0.000000	0.000000	3431.191410	574.875474	298.161368	188.985131	7.159301	0.764300	0.235700	-0.000000	-0.000000	0.000000
0.615000	0.000857	0.000264	-0.000000	-0.000000	0.000000	3432.365564	570.973371	298.161650	184.387833	7.186182	0.764300	0.235700	-0.000000	-0.000000	0.000000
0.625000	0.000840	0.000259	-0.000000	-0.000000	0.000000	3433.619560	566.804447	298.161915	179.562966	7.215196	0.764300	0.235700	-0.000000	-0.000000	0.000000
0.635000	0.000823	0.000254	-0.000000	0.000000	0.000000	3434.948692	562.384071	298.162163	174.544362	7.246300	0.764300	0.235700	-0.000000	0.000000	0.000000
0.645000	0.000806	0.000248	-0.000000	0.000000	0.000000	3436.348140	557.727993	298.162394	169.365566	7.279449	0.764300	0.235700	-0.000000	0.000000	0.000000
0.655000	0.000787	0.000243	-0.000000	0.000000	0.000000	3437.813008	552.852223	298.162609	164.059441	7.314595	0.764300	0.235700	-0.000000	0.000000	0.000000
0.665000	0.000768	0.000237	-0.000000	0.000000	0.000000	3439.338364	547.772913	298.162806	158.657813	7.351690	0.764300	0.235700	-0.000000	0.000000	0.000000
0.675000	0.000749	0.000231	-0.000000	0.000000	0.000000	3440.919271	542.506244	298.162987	153.191164	7.390685	0.764300	0.235700	-0.000000	0.000000	0.000000
0.685000	0.000730	0.000225	-0.000000	0.000000	0.000000	3442.550822	537.068321	298.163152	147.688372	7.431529	0.764300	0.235700	-0.000000	0.000000	0.000000
0.695000	0.000710	0.000219	-0.000000	0.000000	0.000000	3444.228167	531.475078	298.163302	142.176506	7.474171	0.764300	0.235700	-0.000000	0.000000	0.000000
0.705000	0.000690	0.000213	-0.000000	0.000000	0.000000	3445.946542	525.742190	298.163438	136.680667	7.518560	0.764300	0.235700	-0.000000	0.000000	0.000000
0.715000	0.000670	0.000207	-0.000000	0.000000	0.000000	3447.701294	519.884993	298.163560	131.223874	7.564645	0.764300	0.235700	-0.000000	0.000000	0.000000
0.725000	0.000650	0.000200	-0.000000	0.000000	0.000000	3449.487895	513.918419	298.163669	125.827004	7.612374	0.764300	0.235700	-0.000000	0.000000	0.000000
0.735000	0.000630	0.000194	-0.000000	0.000000	0.000000	3451.301970	507.856933	298.163767	120.508757	7.661695	0.764300	0.235700	-0.000000	0.000000	0.000000
0.745000	0.000610	0.000188	-0.000000	0.000000	0.000000	3453.139302	501.714486	298.163853	115.285674	7.712556	0.764300	0.235700	-0.000000	0.000000	0.000000
0.755000	0.000590	0.000182	-0.000000	0.000000	0.000000	3454.995853	495.504468	298.163929	110.172169	7.764908	0.764300	0.235700	-0.000000	0.000000	0.000000
0.765000	0.000570	0.000176	-0.000000	0.000000	0.000000	3456.867766	489.239683	298.163996	105.180605	7.818699	0.764300	0.235700	-0.000000	0.000000	0.000000
0.775000	0.000551	0.000170	-0.000000	0.000000	0.000000	3458.751379	482.932317	298.164055	100.321374	7.873880	0.764300	0.235700	-0.000000	0.000000	0.000000
0.785000	0.000532	0.000164	-0.000000	0.000000	0.000000	3460.643225	476.593924	298.164106	95.603010	7.930401	0.764300	0.235700	-0.000000	0.000000	0.000000
0.795000	0.000514	0.000158	-0.000000	0.000000	0.000000	3462.540037	470.235415	298.164150	91.032305	7.988214	0.764300	0.235700	-0.000000	0.000000	0.000000
0.805000	0.000495	0.000153	-0.000000	0.000000	0.000000	3464.438747	463.867051	298.164189	86.614436	8.047272	0.764300	0.235700	-0.000000	0.000000	0.000000
0.815000	0.000478	0.000147	-0.000000	0.000000	0.000000	3466.336489	457.498447	298.164222	82.353100	8.107528	0.764300	0.235700	-0.000000	0.000000	0.000000
0.825000	0.000460	0.000142	-0.000000	0.000000	0.000000	3468.230592	451.138576	298.164250	78.250645	8.168937	0.764300	0.235700	-0.000000	0.000000	0.000000
0.835000	0.000443	0.000137	-0.000000	0.000000	0.000000	3470.118581	444.795780	298.164274	74.308212	8.231454	0.764300	0.235700	-0.000000	0.000000	0.000000
0.845000	0.000548	0.000169	0.000000	0.000000	0.000000	2882.978342	2519.961489	655.870361	520.715479	2.785359	0.764291	0.235541	0.000019	0.000000	0.000150
0.855000	0.002029	0.000619	0.000001	0.000000	0.000006	806.565802	5919.909363	2912.460790	4538.247629	0.507791	0.764158	0.233148	0.000296	0.000003	0.002394
0.865000	0.002583	0.000760	0.000006	0.000000	0.000034	568.703094	5476.898791	3925.395125	5387.138223	0.370671	0.763479	0.224757	0.001702	0.000027	0.010036
0.875000	0.002870	0.000793	0.000023	0.000000	0.000083	483.226867	5074.523546	4371.226864	5620.644940	0.325032	0.761400	0.210390	0.006055	0.000074	0.022082
0.885000	0.003071	0.000788	0.000053	0.000000	0.000139	428.288031	4784.594616	4523.121682	5757.987966	0.294684	0.758060	0.194440	0.013106	0.000122	0.034271
0.895000	0.003215	0.000764	0.000092	0.000001	0.000191	388.883090	4575.760439	4540.864445	5849.238514	0.272010	0.754045	0.179281	0.021625	0.000160	0.044888
0.905000	0.003319	0.000734	0.000135	0.000001	0.000238	358.666376	4422.900404	4499.663339	5913.756529	0.253945	0.749897	0.165804	0.030449	0.000189	0.053661
0.915000	0.003396	0.000702	0.000177	0.000001	0.000277	334.258258	4308.305330	4435.055773	5961.727625	0.238849	0.745971	0.154177	0.038815	0.000210	0.060827
0.925000	0.003455	0.000671	0.000216	0.000001	0.000310	313.717117	4220.037678	4363.901024	5998.987461	0.225774	0.742454	0.144279	0.046320	0.000225	0.066724
0.935000	0.003502	0.000644	0.000250	0.000001	0.000339	295.878552	4150.165675	4294.050791	6029.014492	0.214145	0.739420	0.135897	0.052798	0.000234	0.071651
0.945000	0.003540	0.000619	0.000280	0.000001	0.000364	280.019525	4093.401987	4228.926466	6053.943297	0.203603	0.736879	0.128810	0.058227	0.000241	0.075844
0.955000	0.003573	0.000597	0.000305	0.000001	0.000386	265.675362	4046.176799	4169.752329	6075.124394	0.193915	0.734807	0.122813	0.062658	0.000245	0.079478
0.965000	0.003602	0.000578	0.000325	0.000001	0.000406	252.536774	4006.037066	4116.674080	6093.441531	0.184926	0.733160	0.117728	0.066181	0.000247	0.082684
0.975000	0.003628	0.000562	0.000341	0.000001	0.000424	240.390306	3971.263020	4069.329495	6109.492530	0.176527	0.731891	0.113406	0.068898	0.000248	0.085557
0.985000	0.003652	0.000548	0.000354	0.000001	0.000440	229.088101	3940.630197	4027.152205	6123.742168	0.168644	0.730951	0.109720	0.070911	0.000248	0.088170
0.995000	0.003674	0.000536	0.000364	0.000001	0.000456	218.389830	3913.012523	3989.187999	6135.274352	0.161125	0.730291	0.106539	0.072327	0.000248	0.090596
1.005000	0.003714	0.000529	0.000373	0.000001	0.000472	211.771581	3888.375434	3956.255796	6178.418795	0.156556	0.729881	0.103903	0.073206	0.000247	0.092763
1.015000	0.003729	0.000519	0.000376	0.000001	0.000484	210.970676	3865.182526	3926.504263	6178.315904	0.156264	0.729667	0.101653	0.073667	0.000245	0.094768
1.025000	0.003744	0.000512	0.000379	0.000001	0.000496	210.062900	3844.687396	3900.194527	6179.776187	0.155855	0.729609	0.099758	0.073797	0.000243	0.096593
1.035000	0.003758	0.000505	0.000379	0.000001	0.000506	209.268501	3826.256725	3876.740059	6180.953350	0.155501	0.729666	0.098143	0.073678	0.000241	0.098272
1.045000	0.003771	0.000500	0.000379	0.000001	0.000516	208.554357	3809.493001	3855.672706	6181.981820	0.155183	0.729810	0.096748	0.073373	0.000240	0.099829
1.055000	0.003783	0.000495	0.000378	0.000001	0.000525	207.905047	3794.097787	3836.603126	6182.891968	0.154894	0.730018	0.095530	0.072933	0.000238	0.101282
1.065000	0.003795	0.000491	0.000376	0.000001	0.000533	207.308721	3779.844695	3819.212183	6183.708576	0.154630	0.730271	0.094455	0.072393	0.000236	0.102645
1.075000	0.003806	0.000487	0.000374	0.000001	0.000541	206.756413	3766.558753	3803.239569	6184.449749	0.154386	0.730558	0.093496	0.071784	0.000234	0.103929
1.085000	0.003817	0.000484	0.000371	0.000001	0.000549	206.241204	3754.102524	3788.473233	6185.129089	0.154158	0.730866	0.092632	0.071127	0.000232	0.105143
1.095000	0.003827	0.000481	0.000369	0.000001	0.000556	205.757677	3742.366475	3774.740231	6185.756992	0.153944	0.731189	0.091846	0.070439	0.000231	0.106296
1.105000	0.003837	0.000478	0.000366	0.000001	0.000563	205.301525	3731.262157	3761.899125	6186.341529	0.153743	0.731520	0.091125	0.069733	0.000229	0.107393
1.115000	0.003847	0.000476	0.000363	0.000001	0.000570	204.869284	3720.717279	3749.833776	6186.889053	0.153552	0.731854	0.090459	0.069020	0.000227	0.108439
1.125000	0.003856	0.000473	0.000360	0.000001	0.000576	204.458135	3710.672095	3738.448370	6187.404632	0.153371	0.732189	0.089839	0.068306	0.000226	0.109440
1.135000	0.003865	0.000471	0.000357	0.000001	0.000583	204.065760	3701.076719	3727.663434	6187.892350	0.153198	0.732522	0.089258	0.067598	0.000224	0.110399
1.145000	0.003874	0.000469	0.000354	0.000001	0.000588	203.690235	3691.889086	3717.412660	6188.355537	0.153033	0.732849	0.088711	0.066899	0.000222	0.111319
1.155000	0.003883	0.000467	0.000351	0.000001	0.000594	203.329946	3683.073407	3707.640391	6188.796933	0.152875	0.733171	0.088193	0.066212	0.000221	0.112203
1.165000	0.003891	0.000465	0.000348	0.000001	0.000600	202.983528	3674.598969	3698.299608	6189.218812	0.152722	0.733487	0.087700	0.065540	0.000220	0.113053
1.175000	0.003899	0.000463	0.000345	0.000001	0.000605	202.649818	3666.439198	3689.350329	6189.623082	0.152576	0.733794	0.087230	0.064884	0.000218	0.113873
1.185000	0.003906	0.000462	0.000342	0.000001	0.000610	202.327814	3658.570928	3680.758336	6190.011355	0.152434	0.734094	0.086781	0.064245	0.000217	0.114664
1.195000	0.003914	0.000460	0.000339	0.000001	0.000615	202.016650	3650.973818	3672.494149	6190.385003	0.152297	0.734385	0.086348	0.063624	0.000215	0.115427
1.205000	0.003921	0.000459	0.000336	0.000001	0.000620	201.715568	3643.629882	3664.532199	6190.745206	0.152165	0.734669	0.085932	0.063020	0.000214	0.116165
1.215000	0.003928	0.000457	0.000334	0.000001	0.000625	201.423903	3636.523120	3656.850173	6191.092983	0.152037	0.734943	0.085531	0.062434	0.000213	0.116879
1.225000	0.003935	0.000456	0.000331	0.000001	0.000629	201.141065	3629.639211	3649.428472	6191.429224	0.151913	0.735210	0.085143	0.061865	0.000212	0.117570
1.235000	0.003942	0.000454	0.000329	0.000001	0.000634	200.866530	3622.965267	3642.249776	6191.754708	0.151792	0.735469	0.084767	0.061314	0.000210	0.118240
1.245000	0.003948	0.000453	0.000326	0.000001	0.000638	200.599827	3616.489629	3635.298692	6192.070126	0.151675	0.735720	0.084403	0.060779	0.000209	0.118889
1.255000	0.003955	0.000452	0.000324	0.000001	0.000642	200.340532	3610.201702	3628.561458	6192.376090	0.151561	0.735963	0.084049	0.060261	0.000208	0.119519
1.265000	0.003961	0.000450	0.000322	0.000001	0.000646	200.088261	3604.091812	3622.025707	6192.673148	0.151451	0.736198	0.083705	0.059759	0.000207	0.120131
1.275000	0.003967	0.000449	0.000319	0.000001	0.000650	199.842663	3598.151091	3615.680271	6192.961794	0.151343	0.736427	0.083371	0.059272	0.000206	0.120726
1.285000	0.003973	0.000448	0.000317	0.000001	0.000654	199.603419	3592.371382	3609.515011	6193.242475	0.151238	0.736648	0.083045	0.058799	0.000205	0.121303
1.295000	0.003979	0.000447	0.000315	0.000001	0.000658	199.370233	3586.745155	3603.520688	6193.515595	0.151136	0.736863	0.082727	0.058342	0.000204	0.121865
1.305000	0.003984	0.000446	0.000313	0.000001	0.000662	199.142836	3581.265433	3597.688844	6193.781525	0.151036	0.737071	0.082417	0.057897	0.000202	0.122412
1.315000	0.003990	0.000444	0.000311	0.000001	0.000665	198.920975	3575.925740	3592.011706	6194.040605	0.150939	0.737273	0.082114	0.057466	0.000201	0.122944
1.325000	0.003995	0.000443	0.000309	0.000001	0.000669	198.704418	3570.720044	3586.482108	6194.293148	0.150844	0.737470	0.081819	0.057048	0.000200	0.123463
1.335000	0.004000	0.000442	0.000307	0.000001	0.000672	198.492946	3565.642712	3581.093419	6194.539443	0.150751	0.737660	0.081530	0.056642	0.000199	0.123968
1.345000	0.004005	0.000441	0.000305	0.000001	0.000676	198.286358	3560.688477	3575.839483	6194.779758	0.150660	0.737846	0.081248	0.056247	0.000199	0.124460
1.355000	0.004010	0.000440	0.000304	0.000001	0.000679	198.084463	3555.852398	3570.714575	6195.014342	0.150572	0.738025	0.080972	0.055864	0.000198	0.124941
1.365000	0.004015	0.000439	0.000302	0.000001	0.000682	197.887083	3551.129837	3565.713349	6195.243428	0.150485	0.738200	0.080702	0.055491	0.000197	0.125410
1.375000	0.004020	0.000438	0.000300	0.000001	0.000685	197.694050	3546.516427	3560.830806	6195.467234	0.150400	0.738370	0.080438	0.055129	0.000196	0.125867
1.385000	0.004025	0.000437	0.000299	0.000001	0.000688	197.505206	3542.008053	3556.062263	6195.685963	0.150318	0.738536	0.080179	0.054776	0.000195	0.126314
1.395000	0.004030	0.000436	0.000297	0.000001	0.000691	197.320402	3537.600832	3551.403317	6195.899807	0.150236	0.738697	0.079926	0.054433	0.000194	0.126750
1.405000	0.004034	0.000435	0.000295	0.000001	0.000694	197.139496	3533.291092	3546.849827	6196.108946	0.150157	0.738854	0.079678	0.054099	0.000193	0.127176
1.415000	0.004038	0.000434	0.000294	0.000001	0.000697	196.962356	3529.075359	3542.397889	6196.313550	0.150079	0.739006	0.079435	0.053774	0.000192	0.127593
1.425000	0.004043	0.000433	0.000292	0.000001	0.000700	196.788855	3524.950339	3538.043818	6196.513781	0.150003	0.739155	0.079196	0.053457	0.000192	0.128000
1.435000	0.004047	0.000432	0.000291	0.000001	0.000703	196.618871	3520.912910	3533.784128	6196.709789	0.149929	0.739300	0.078962	0.053148	0.000191	0.128399
1.445000	0.004051	0.000431	0.000290	0.000001	0.000706	196.452292	3516.960103	3529.615520	6196.901719	0.149856	0.739441	0.078733	0.052847	0.000190	0.128789
1.455000	0.004055	0.000430	0.000288	0.000001	0.000708	196.289008	3513.089100	3525.534864	6197.089707	0.149784	0.739579	0.078508	0.052553	0.000189	0.129170
1.465000	0.004059	0.000430	0.000287	0.000001	0.000711	196.128915	3509.297215	3521.539190	6197.273885	0.149714	0.739713	0.078288	0.052267	0.000189	0.129543
1.475000	0.004063	0.000429	0.000286	0.000001	0.000713	195.971910	3505.581893	3517.625676	6197.454321	0.149645	0.739845	0.078071	0.051988	0.000188	0.129909
1.485000	0.004067	0.000428	0.000284	0.000001	0.000716	195.818051	3501.940725	3513.791690	6197.632657	0.149578	0.739973	0.077858	0.051715	0.000187	0.130267
1.495000	0.004071	0.000427	0.000283	0.000001	0.000718	195.663016	3498.372887	3510.035616	6197.767006	0.149508	0.740098	0.077650	0.051448	0.000186	0.130618
