TITLE = "title"
VARIABLES = "X","rhoN2","rhoO2","rhoNO","rhoN","rhoO","u","T","Tv","P","M","YN2","YO2","YNO","YN","YO"
ZONE I=200, DATAPACKING=POINT
0.003750	0.000242	0.000075	0.000000	-0.000000	0.000000	3498.744952	354.326403	350.000000	32.345391	9.268042	0.764300	0.235700	0.000000	-0.000000	0.000000
0.011250	0.000250	0.000077	0.000000	0.000000	0.000000	3497.474257	358.703323	350.000000	33.754166	9.208762	0.764300	0.235700	0.000000	0.000000	0.000000
0.018750	0.000257	0.000079	0.000000	-0.000000	0.000000	3496.188050	363.130112	350.000000	35.223554	9.149904	0.764300	0.235700	0.000000	-0.000000	0.000000
0.026250	0.000265	0.000082	0.000000	0.000000	0.000000	3494.886494	367.606023	350.000000	36.755726	9.091483	0.764300	0.235700	0.000000	0.000000	0.000000
0.033750	0.000273	0.000084	0.000000	0.000000	0.000000	3493.569785	372.130197	350.000000	38.352872	9.033511	0.764300	0.235700	0.000000	0.000000	0.000000
0.041250	0.000282	0.000087	0.000000	0.000000	0.000000	3492.238149	376.701663	350.000000	40.017192	8.976001	0.764300	0.235700	0.000000	0.000000	0.000000
0.048750	0.000290	0.000090	0.000000	0.000000	0.000000	3490.891848	381.319330	350.000000	41.750893	8.918968	0.764300	0.235700	0.000000	0.000000	0.000000
0.056250	0.000299	0.000092	0.000000	0.000000	0.000000	3489.531180	385.981981	350.000000	43.556173	8.862426	0.764300	0.235700	0.000000	0.000000	0.000000
0.063750	0.000309	0.000095	0.000000	0.000000	0.000000	3488.156481	390.688269	350.000000	45.435215	8.806389	0.764300	0.235700	0.000000	0.000000	0.000000
0.071250	0.000318	0.000098	0.000000	0.000000	0.000000	3486.768128	395.436708	350.000000	47.390171	8.750872	0.764300	0.235700	0.000000	0.000000	0.000000
0.078750	0.000328	0.000101	0.000000	0.000000	0.000000	3485.366540	400.225670	350.000000	49.423155	8.695889	0.764300	0.235700	0.000000	0.000000	0.000000
0.086250	0.000338	0.000104	0.000000	0.000000	0.000000	3483.952179	405.053377	350.000000	51.536222	8.641456	0.764300	0.235700	0.000000	0.000000	0.000000
0.093750	0.000348	0.000107	0.000000	-0.000000	0.000000	3482.525555	409.917899	350.000000	53.731357	8.587587	0.764300	0.235700	0.000000	-0.000000	0.000000
0.101250	0.000358	0.000110	0.000000	-0.000000	0.000000	3481.087226	414.817143	350.000000	56.010453	8.534299	0.764300	0.235700	0.000000	-0.000000	0.000000
0.108750	0.000369	0.000114	0.000000	-0.000000	0.000000	3479.637798	419.748852	350.000000	58.375298	8.481607	0.764300	0.235700	0.000000	-0.000000	0.000000
0.116250	0.000380	0.000117	0.000000	0.000000	0.000000	3478.177934	424.710597	350.000000	60.827551	8.429526	0.764300	0.235700	0.000000	0.000000	0.000000
0.123750	0.000391	0.000121	0.000000	0.000000	0.000000	3476.708346	429.699775	350.000000	63.368721	8.378074	0.764300	0.235700	0.000000	0.000000	0.000000
0.131250	0.000403	0.000124	0.000000	0.000000	0.000000	3475.229805	434.713601	350.000000	66.000143	8.327266	0.764300	0.235700	0.000000	0.000000	0.000000
0.138750	0.000415	0.000128	0.000000	0.000000	0.000000	3473.743139	439.749106	350.000000	68.722956	8.277118	0.764300	0.235700	0.000000	0.000000	0.000000
0.146250	0.000427	0.000132	0.000000	0.000000	0.000000	3472.249234	444.803132	350.000000	71.538073	8.227648	0.764300	0.235700	0.000000	0.000000	0.000000
0.153750	0.000439	0.000135	0.000000	0.000000	0.000000	3470.749040	449.872331	350.000000	74.446156	8.178871	0.764300	0.235700	0.000000	0.000000	0.000000
0.161250	0.000452	0.000139	0.000000	0.000000	0.000000	3469.243567	454.953156	350.000000	77.447587	8.130806	0.764300	0.235700	0.000000	0.000000	0.000000
0.168750	0.000464	0.000143	0.000000	0.000000	0.000000	3467.733888	460.041867	350.000000	80.542437	8.083468	0.764300	0.235700	0.000000	0.000000	0.000000
0.176250	0.000478	0.000147	0.000000	0.000000	0.000000	3466.221142	465.134523	350.000000	83.730436	8.036876	0.764300	0.235700	0.000000	0.000000	0.000000
0.183750	0.000491	0.000151	0.000000	-0.000000	0.000000	3464.706534	470.226984	350.000000	87.010939	7.991046	0.764300	0.235700	0.000000	-0.000000	0.000000
0.191250	0.000504	0.000156	0.000000	-0.000000	0.000000	3463.191333	475.314911	350.000000	90.382896	7.945995	0.764300	0.235700	0.000000	-0.000000	0.000000
0.198750	0.000518	0.000160	0.000000	0.000000	0.000000	3461.676876	480.393765	350.000000	93.844818	7.901741	0.764300	0.235700	0.000000	0.000000	0.000000
0.206250	0.000532	0.000164	0.000000	0.000000	0.000000	3460.164566	485.458809	350.000000	97.394745	7.858302	0.764300	0.235700	0.000000	0.000000	0.000000
0.213750	0.000546	0.000169	0.000000	0.000000	0.000000	3458.655871	490.505114	350.000000	101.030213	7.815694	0.764300	0.235700	0.000000	0.000000	0.000000
0.221250	0.000561	0.000173	0.000000	0.000000	0.000000	3457.152327	495.527559	350.000000	104.748222	7.773936	0.764300	0.235700	0.000000	0.000000	0.000000
0.228750	0.000575	0.000177	0.000000	0.000000	0.000000	3455.655531	500.520837	350.000000	108.545207	7.733045	0.764300	0.235700	0.000000	0.000000	0.000000
0.236250	0.000590	0.000182	0.000000	-0.000000	0.000000	3454.167147	505.479462	350.000000	112.417008	7.693038	0.764300	0.235700	0.000000	-0.000000	0.000000
0.243750	0.000605	0.000187	0.000000	-0.000000	0.000000	3452.688898	510.397774	350.000000	116.358843	7.653932	0.764300	0.235700	0.000000	-0.000000	0.000000
0.251250	0.000620	0.000191	0.000000	-0.000000	0.000000	3451.222567	515.269952	350.000000	120.365288	7.615746	0.764300	0.235700	0.000000	-0.000000	0.000000
0.258750	0.000635	0.000196	0.000000	-0.000000	0.000000	3449.769993	520.090018	350.000000	124.430253	7.578495	0.764300	0.235700	0.000000	-0.000000	0.000000
0.266250	0.000650	0.000200	0.000000	0.000000	0.000000	3448.333069	524.851854	350.000000	128.546964	7.542198	0.764300	0.235700	0.000000	0.000000	0.000000
0.273750	0.000665	0.000205	0.000000	0.000000	0.000000	3446.913738	529.549210	350.000000	132.707960	7.506871	0.764300	0.235700	0.000000	0.000000	0.000000
0.281250	0.000680	0.000210	0.000000	0.000000	0.000000	3445.513986	534.175721	350.000000	136.905077	7.472532	0.764300	0.235700	0.000000	0.000000	0.000000
0.288750	0.000695	0.000214	0.000000	0.000000	0.000000	3444.135844	538.724921	350.000000	141.129454	7.439196	0.764300	0.235700	0.000000	0.000000	0.000000
0.296250	0.000710	0.000219	0.000000	0.000000	0.000000	3442.781375	543.190261	350.000000	145.371536	7.406880	0.764300	0.235700	0.000000	0.000000	0.000000
0.303750	0.000725	0.000224	0.000000	0.000000	0.000000	3441.452674	547.565125	350.000000	149.621088	7.375600	0.764300	0.235700	0.000000	0.000000	0.000000
0.311250	0.000740	0.000228	0.000000	-0.000000	0.000000	3440.151859	551.842851	350.000000	153.867217	7.345373	0.764300	0.235700	0.000000	-0.000000	0.000000
0.318750	0.000754	0.000233	0.000000	-0.000000	0.000000	3438.881067	556.016750	350.000000	158.098402	7.316213	0.764300	0.235700	0.000000	-0.000000	0.000000
0.326250	0.000769	0.000237	0.000000	-0.000000	0.000000	3437.642442	560.080132	350.000000	162.302526	7.288137	0.764300	0.235700	0.000000	-0.000000	0.000000
0.333750	0.000783	0.000241	0.000000	-0.000000	0.000000	3436.438133	564.026322	350.000000	166.466929	7.261158	0.764300	0.235700	0.000000	-0.000000	0.000000
0.341250	0.000797	0.000246	0.000000	0.000000	0.000000	3435.270283	567.848691	350.000000	170.578459	7.235291	0.764300	0.235700	0.000000	0.000000	0.000000
0.348750	0.000811	0.000250	0.000000	0.000000	0.000000	3434.141019	571.540674	350.000000	174.623537	7.210551	0.764300	0.235700	0.000000	0.000000	0.000000
0.356250	0.000824	0.000254	0.000000	0.000000	0.000000	3433.052449	575.095803	350.000000	178.588228	7.186951	0.764300	0.235700	0.000000	0.000000	0.000000
0.363750	0.000837	0.000258	0.000000	0.000000	0.000000	3432.006646	578.507725	350.000000	182.458326	7.164503	0.764300	0.235700	0.000000	0.000000	0.000000
0.371250	0.000849	0.000262	0.000000	0.000000	0.000000	3431.005645	581.770233	350.000000	186.219438	7.143221	0.764300	0.235700	0.000000	0.000000	0.000000
0.378750	0.000861	0.000266	0.000000	0.000000	0.000000	3430.051429	584.877293	350.000000	189.857086	7.123117	0.764300	0.235700	0.000000	0.000000	0.000000
0.386250	0.000873	0.000269	0.000000	0.000000	0.000000	3429.145923	587.823069	350.000000	193.356805	7.104201	0.764300	0.235700	0.000000	0.000000	0.000000
0.393750	0.000884	0.000272	0.000000	0.000000	0.000000	3428.290982	590.601949	350.000000	196.704252	7.086485	0.764300	0.235700	0.000000	0.000000	0.000000
0.401250	0.000894	0.000276	0.000000	0.000000	0.000000	3427.488385	593.208572	350.000000	199.885323	7.069979	0.764300	0.235700	0.000000	0.000000	0.000000
0.408750	0.000904	0.000279	0.000000	0.000000	0.000000	3426.739822	595.637856	350.000000	202.886262	7.054691	0.764300	0.235700	0.000000	0.000000	0.000000
0.416250	0.000913	0.000281	0.000000	0.000000	0.000000	3426.046886	597.885016	350.000000	205.693785	7.040632	0.764300	0.235700	0.000000	0.000000	0.000000
0.423750	0.000921	0.000284	0.000000	-0.000000	0.000000	3425.411069	599.945596	350.000000	208.295193	7.027808	0.764300	0.235700	0.000000	-0.000000	0.000000
0.431250	0.000929	0.000286	0.000000	-0.000000	0.000000	3424.833746	601.815484	350.000000	210.678489	7.016226	0.764300	0.235700	0.000000	-0.000000	0.000000
0.438750	0.000936	0.000289	0.000000	-0.000000	0.000000	3424.316174	603.490937	350.000000	212.832491	7.005894	0.764300	0.235700	0.000000	-0.000000	0.000000
0.446250	0.000942	0.000290	0.000000	-0.000000	0.000000	3423.859482	604.968600	350.000000	214.746938	6.996817	0.764300	0.235700	0.000000	-0.000000	0.000000
0.453750	0.000947	0.000292	0.000000	-0.000000	0.000000	3423.464665	606.245524	350.000000	216.412593	6.988999	0.764300	0.235700	0.000000	-0.000000	0.000000
0.461250	0.000952	0.000293	0.000000	0.000000	0.000000	3423.132578	607.319179	350.000000	217.821332	6.982444	0.764300	0.235700	0.000000	0.000000	0.000000
0.468750	0.000955	0.000295	0.000000	0.000000	0.000000	3422.863932	608.187467	350.000000	218.966230	6.977155	0.764300	0.235700	0.000000	0.000000	0.000000
0.476250	0.000958	0.000295	0.000000	0.000000	0.000000	3422.659288	608.848738	350.000000	219.841630	6.973135	0.764300	0.235700	0.000000	0.000000	0.000000
0.483750	0.000960	0.000296	0.000000	0.000000	0.000000	3422.519057	609.301792	350.000000	220.443201	6.970385	0.764300	0.235700	0.000000	0.000000	0.000000
0.491250	0.000961	0.000296	0.000000	0.000000	0.000000	3422.443495	609.545891	350.000000	220.767985	6.968904	0.764300	0.235700	0.000000	0.000000	0.000000
0.498750	0.000961	0.000296	0.000000	0.000000	0.000000	3422.432702	609.580757	350.000000	220.814427	6.968692	0.764300	0.235700	0.000000	0.000000	0.000000
0.506250	0.000960	0.000296	0.000000	-0.000000	0.000000	3422.486621	609.406578	350.000000	220.582390	6.969749	0.764300	0.235700	0.000000	-0.000000	0.000000
0.513750	0.000959	0.000296	0.000000	-0.000000	0.000000	3422.605042	609.024001	350.000000	220.073159	6.972071	0.764300	0.235700	0.000000	-0.000000	0.000000
0.521250	0.000956	0.000295	0.000000	-0.000000	0.000000	3422.787601	608.434133	350.000000	219.289422	6.975655	0.764300	0.235700	0.000000	-0.000000	0.000000
0.528750	0.000953	0.000294	0.000000	-0.000000	0.000000	3423.033780	607.638529	350.000000	218.235243	6.980498	0.764300	0.235700	0.000000	-0.000000	0.000000
0.536250	0.000949	0.000293	0.000000	-0.000000	0.000000	3423.342915	606.639188	350.000000	216.916020	6.986593	0.764300	0.235700	0.000000	-0.000000	0.000000
0.543750	0.000944	0.000291	0.000000	-0.000000	0.000000	3423.714198	605.438537	350.000000	215.338424	6.993937	0.764300	0.235700	0.000000	-0.000000	0.000000
0.551250	0.000938	0.000289	0.000000	-0.000000	0.000000	3424.146682	604.039419	350.000000	213.510332	7.002521	0.764300	0.235700	0.000000	-0.000000	0.000000
0.558750	0.000931	0.000287	0.000000	-0.000000	0.000000	3424.639286	602.445076	350.000000	211.440747	7.012339	0.764300	0.235700	0.000000	-0.000000	0.000000
0.566250	0.000924	0.000285	0.000000	-0.000000	0.000000	3425.190805	600.659134	350.000000	209.139704	7.023382	0.764300	0.235700	0.000000	-0.000000	0.000000
0.573750	0.000916	0.000282	0.000000	-0.000000	0.000000	3425.799910	598.685579	350.000000	206.618170	7.035642	0.764300	0.235700	0.000000	-0.000000	0.000000
0.581250	0.000907	0.000280	0.000000	-0.000000	0.000000	3426.465165	596.528740	350.000000	203.887942	7.049108	0.764300	0.235700	0.000000	-0.000000	0.000000
0.588750	0.000897	0.000277	0.000000	-0.000000	0.000000	3427.185027	594.193263	350.000000	200.961533	7.063771	0.764300	0.235700	0.000000	-0.000000	0.000000
0.596250	0.000887	0.000274	0.000000	-0.000000	0.000000	3427.957860	591.684091	350.000000	197.852055	7.079620	0.764300	0.235700	0.000000	-0.000000	0.000000
0.603750	0.000876	0.000270	0.000000	-0.000000	0.000000	3428.781940	589.006434	350.000000	194.573106	7.096642	0.764300	0.235700	0.000000	-0.000000	0.000000
0.611250	0.000865	0.000267	0.000000	-0.000000	0.000000	3429.655467	586.165752	350.000000	191.138653	7.114826	0.764300	0.235700	0.000000	-0.000000	0.000000
0.618750	0.000853	0.000263	0.000000	0.000000	0.000000	3430.576570	583.167720	350.000000	187.562913	7.134159	0.764300	0.235700	0.000000	0.000000	0.000000
0.626250	0.000841	0.000259	0.000000	0.000000	0.000000	3431.543321	580.018209	350.000000	183.860246	7.154628	0.764300	0.235700	0.000000	0.000000	0.000000
0.633750	0.000828	0.000255	0.000000	0.000000	0.000000	3432.553744	576.723257	350.000000	180.045044	7.176219	0.764300	0.235700	0.000000	0.000000	0.000000
0.641250	0.000815	0.000251	0.000000	0.000000	0.000000	3433.605817	573.289043	350.000000	176.131625	7.198918	0.764300	0.235700	0.000000	0.000000	0.000000
0.648750	0.000802	0.000247	0.000000	0.000000	0.000000	3434.697491	569.721863	350.000000	172.134146	7.222709	0.764300	0.235700	0.000000	0.000000	0.000000
0.656250	0.000788	0.000243	0.000000	0.000000	0.000000	3435.826692	566.028102	350.000000	168.066502	7.247579	0.764300	0.235700	0.000000	0.000000	0.000000
0.663750	0.000774	0.000239	0.000000	0.000000	0.000000	3436.991331	562.214211	350.000000	163.942255	7.273512	0.764300	0.235700	0.000000	0.000000	0.000000
0.671250	0.000759	0.000234	0.000000	0.000000	0.000000	3438.189312	558.286685	350.000000	159.774553	7.300491	0.764300	0.235700	0.000000	0.000000	0.000000
0.678750	0.000745	0.000230	0.000000	0.000000	0.000000	3439.418542	554.252038	350.000000	155.576072	7.328502	0.764300	0.235700	0.000000	0.000000	0.000000
0.686250	0.000730	0.000225	0.000000	0.000000	0.000000	3440.676934	550.116779	350.000000	151.358956	7.357528	0.764300	0.235700	0.000000	0.000000	0.000000
0.693750	0.000715	0.000221	0.000000	0.000000	0.000000	3441.962418	545.887396	350.000000	147.134771	7.387552	0.764300	0.235700	0.000000	0.000000	0.000000
0.701250	0.000700	0.000216	0.000000	0.000000	0.000000	3443.272946	541.570332	350.000000	142.914467	7.418558	0.764300	0.235700	0.000000	0.000000	0.000000
0.708750	0.000685	0.000211	0.000000	0.000000	0.000000	3444.606497	537.171970	350.000000	138.708349	7.450528	0.764300	0.235700	0.000000	0.000000	0.000000
0.716250	0.000670	0.000207	0.000000	0.000000	0.000000	3445.961083	532.698613	350.000000	134.526054	7.483447	0.764300	0.235700	0.000000	0.000000	0.000000
0.723750	0.000655	0.000202	0.000000	0.000000	0.000000	3447.334756	528.156470	350.000000	130.376537	7.517297	0.764300	0.235700	0.000000	0.000000	0.000000
0.731250	0.000640	0.000197	0.000000	0.000000	0.000000	3448.725609	523.551639	350.000000	126.268064	7.552060	0.764300	0.235700	0.000000	0.000000	0.000000
0.738750	0.000625	0.000193	0.000000	-0.000000	0.000000	3450.131782	518.890096	350.000000	122.208209	7.587720	0.764300	0.235700	0.000000	-0.000000	0.000000
0.746250	0.000610	0.000188	0.000000	0.000000	0.000000	3451.551466	514.177684	350.000000	118.203863	7.624259	0.764300	0.235700	0.000000	0.000000	0.000000
0.753750	0.000595	0.000184	0.000000	-0.000000	0.000000	3452.982906	509.420098	350.000000	114.261243	7.661661	0.764300	0.235700	0.000000	-0.000000	0.000000
0.761250	0.000580	0.000179	0.000000	-0.000000	0.000000	3454.424401	504.622880	350.000000	110.385904	7.699907	0.764300	0.235700	0.000000	-0.000000	0.000000
0.768750	0.000566	0.000174	0.000000	-0.000000	0.000000	3455.874311	499.791408	350.000000	106.582764	7.738980	0.764300	0.235700	0.000000	-0.000000	0.000000
0.776250	0.000551	0.000170	0.000000	-0.000000	0.000000	3457.331053	494.930891	350.000000	102.856121	7.778864	0.764300	0.235700	0.000000	-0.000000	0.000000
0.783750	0.000537	0.000166	0.000000	0.000000	0.000000	3458.793107	490.046363	350.000000	99.209681	7.819541	0.764300	0.235700	0.000000	0.000000	0.000000
0.791250	0.000523	0.000161	0.000000	0.000000	0.000000	3460.259015	485.142675	350.000000	95.646587	7.860993	0.764300	0.235700	0.000000	0.000000	0.000000
0.798750	0.000509	0.000157	0.000000	0.000000	0.000000	3461.727382	480.224497	350.000000	92.169446	7.903205	0.764300	0.235700	0.000000	0.000000	0.000000
0.806250	0.000496	0.000153	0.000000	0.000000	0.000000	3463.196876	475.296312	350.000000	88.780361	7.946158	0.764300	0.235700	0.000000	0.000000	0.000000
0.813750	0.000482	0.000149	0.000000	0.000000	0.000000	3464.666229	470.362412	350.000000	85.480963	7.989837	0.764300	0.235700	0.000000	0.000000	0.000000
0.821250	0.000469	0.000145	0.000000	0.000000	0.000000	3466.134234	465.426903	350.000000	82.272441	8.034224	0.764300	0.235700	0.000000	0.000000	0.000000
0.828750	0.000456	0.000141	0.000000	0.000000	0.000000	3467.599750	460.493701	350.000000	79.155577	8.079303	0.764300	0.235700	0.000000	0.000000	0.000000
0.836250	0.000443	0.000137	0.000000	0.000000	0.000000	3469.061695	455.566532	350.000000	76.130776	8.125058	0.764300	0.235700	0.000000	0.000000	0.000000
0.843750	0.000523	0.000161	0.000000	0.000000	0.000000	3014.775542	1734.220304	350.000000	342.090307	3.737381	0.764310	0.235703	0.000000	0.000000	0.000000
0.851250	0.002427	0.000748	0.000000	-0.000000	0.000000	697.822431	5016.176715	350.000000	4588.717658	0.515009	0.764305	0.235701	0.000000	-0.000000	0.000000
0.858750	0.003022	0.000932	-0.000000	-0.000000	0.000000	474.978279	5112.662327	350.000000	5824.083461	0.347295	0.764300	0.235700	-0.000000	-0.000000	0.000000
0.866250	0.003046	0.000939	-0.000000	-0.000000	0.000000	456.167313	5119.114224	350.000000	5878.141483	0.333336	0.764300	0.235700	-0.000000	-0.000000	0.000000
0.873750	0.003057	0.000943	-0.000000	0.000000	0.000000	441.707889	5123.891302	350.000000	5904.134179	0.322622	0.764300	0.235700	-0.000000	0.000000	0.000000
0.881250	0.003067	0.000946	-0.000000	0.000000	0.000000	427.817095	5128.332178	350.000000	5927.953413	0.312344	0.764300	0.235700	-0.000000	0.000000	0.000000
0.888750	0.003076	0.000949	-0.000000	-0.000000	0.000000	414.385219	5132.487824	350.000000	5950.333646	0.302418	0.764300	0.235700	-0.000000	-0.000000	0.000000
0.896250	0.003084	0.000951	-0.000000	-0.000000	0.000000	401.394027	5136.377224	350.000000	5971.374911	0.292829	0.764300	0.235700	-0.000000	-0.000000	0.000000
0.903750	0.003092	0.000954	-0.000000	-0.000000	0.000000	388.828325	5140.017355	350.000000	5991.156570	0.283563	0.764300	0.235700	-0.000000	-0.000000	0.000000
0.911250	0.003100	0.000956	-0.000000	0.000000	0.000000	376.673697	5143.424014	350.000000	6009.752932	0.274610	0.764300	0.235700	-0.000000	0.000000	0.000000
0.918750	0.003107	0.000958	-0.000000	0.000000	0.000000	364.916376	5146.611940	350.000000	6027.233957	0.265958	0.764300	0.235700	-0.000000	0.000000	0.000000
0.926250	0.003114	0.000960	-0.000000	-0.000000	0.000000	353.543179	5149.594909	350.000000	6043.665543	0.257596	0.764300	0.235700	-0.000000	-0.000000	0.000000
0.933750	0.003120	0.000962	-0.000000	-0.000000	0.000000	342.541454	5152.385816	350.000000	6059.109792	0.249514	0.764300	0.235700	-0.000000	-0.000000	0.000000
0.941250	0.003126	0.000964	-0.000000	-0.000000	0.000000	331.899037	5154.996756	350.000000	6073.625235	0.241702	0.764300	0.235700	-0.000000	-0.000000	0.000000
0.948750	0.003131	0.000966	0.000000	-0.000000	0.000000	321.604212	5157.439093	350.000000	6087.267047	0.234151	0.764300	0.235700	0.000000	-0.000000	0.000000
0.956250	0.003137	0.000967	0.000000	-0.000000	0.000000	311.645684	5159.723523	350.000000	6100.087237	0.226851	0.764300	0.235700	0.000000	-0.000000	0.000000
0.963750	0.003141	0.000969	0.000000	-0.000000	0.000000	302.012544	5161.860136	350.000000	6112.134834	0.219794	0.764300	0.235700	0.000000	-0.000000	0.000000
0.971250	0.003146	0.000970	0.000000	-0.000000	0.000000	292.694252	5163.858478	350.000000	6123.456050	0.212973	0.764300	0.235700	0.000000	-0.000000	0.000000
0.978750	0.003150	0.000972	0.000000	-0.000000	0.000000	283.680612	5165.727611	350.000000	6134.094456	0.206377	0.764300	0.235700	0.000000	-0.000000	0.000000
0.986250	0.003154	0.000973	0.000000	-0.000000	0.000000	274.961961	5167.476153	350.000000	6144.093391	0.200002	0.764300	0.235700	0.000000	-0.000000	0.000000
0.993750	0.003158	0.000974	0.000000	-0.000000	0.000000	266.548634	5169.108565	350.000000	6153.716246	0.193852	0.764300	0.235700	0.000000	-0.000000	0.000000
1.001250	0.003174	0.000979	0.000000	-0.000000	0.000000	260.346395	5170.267310	350.000000	6184.572001	0.189320	0.764300	0.235700	0.000000	-0.000000	0.000000
1.008750	0.003181	0.000981	0.000000	-0.000000	0.000000	258.549273	5170.566939	350.000000	6198.941279	0.188008	0.764300	0.235700	0.000000	-0.000000	0.000000
1.016250	0.003181	0.000981	0.000000	-0.000000	0.000000	258.508673	5170.532395	350.000000	6199.258825	0.187979	0.764300	0.235700	0.000000	-0.000000	0.000000
1.023750	0.003181	0.000981	0.000000	-0.000000	0.000000	258.507021	5170.492621	350.000000	6199.264378	0.187979	0.764300	0.235700	0.000000	-0.000000	0.000000
1.031250	0.003181	0.000981	0.000000	-0.000000	0.000000	258.506256	5170.455256	350.000000	6199.262949	0.187979	0.764300	0.235700	0.000000	-0.000000	0.000000
1.038750	0.003181	0.000981	0.000000	-0.000000	0.000000	258.505532	5170.420822	350.000000	6199.261330	0.187979	0.764300	0.235700	0.000000	-0.000000	0.000000
1.046250	0.003181	0.000981	0.000000	-0.000000	0.000000	258.504832	5170.389663	350.000000	6199.259689	0.187979	0.764300	0.235700	0.000000	-0.000000	0.000000
1.053750	0.003181	0.000981	0.000000	-0.000000	0.000000	258.504154	5170.362088	350.000000	6199.258047	0.187979	0.764300	0.235700	0.000000	-0.000000	0.000000
1.061250	0.003181	0.000981	0.000000	-0.000000	0.000000	258.503499	5170.338380	350.000000	6199.256422	0.187979	0.764300	0.235700	0.000000	-0.000000	0.000000
1.068750	0.003181	0.000981	0.000000	0.000000	0.000000	258.502866	5170.318786	350.000000	6199.254829	0.187979	0.764300	0.235700	0.000000	0.000000	0.000000
1.076250	0.003181	0.000981	0.000000	0.000000	0.000000	258.502256	5170.303522	350.000000	6199.253281	0.187979	0.764300	0.235700	0.000000	0.000000	0.000000
1.083750	0.003181	0.000981	0.000000	0.000000	0.000000	258.501669	5170.292764	350.000000	6199.251791	0.187979	0.764300	0.235700	0.000000	0.000000	0.000000
1.091250	0.003181	0.000981	0.000000	0.000000	0.000000	258.501105	5170.286651	350.000000	6199.250368	0.187978	0.764300	0.235700	0.000000	0.000000	0.000000
1.098750	0.003181	0.000981	0.000000	0.000000	0.000000	258.500563	5170.285281	350.000000	6199.249021	0.187978	0.764300	0.235700	0.000000	0.000000	0.000000
1.106250	0.003181	0.000981	0.000000	0.000000	0.000000	258.500044	5170.288712	350.000000	6199.247756	0.187977	0.764300	0.235700	0.000000	0.000000	0.000000
1.113750	0.003181	0.000981	0.000000	0.000000	0.000000	258.499547	5170.296959	350.000000	6199.246577	0.187977	0.764300	0.235700	0.000000	0.000000	0.000000
1.121250	0.003181	0.000981	0.000000	0.000000	0.000000	258.499073	5170.309996	350.000000	6199.245487	0.187976	0.764300	0.235700	0.000000	0.000000	0.000000
1.128750	0.003181	0.000981	0.000000	0.000000	0.000000	258.498621	5170.327754	350.000000	6199.244486	0.187976	0.764300	0.235700	0.000000	0.000000	0.000000
1.136250	0.003181	0.000981	0.000000	0.000000	0.000000	258.498191	5170.350120	350.000000	6199.243570	0.187975	0.764300	0.235700	0.000000	0.000000	0.000000
1.143750	0.003181	0.000981	0.000000	0.000000	0.000000	258.497783	5170.376941	350.000000	6199.242738	0.187974	0.764300	0.235700	0.000000	0.000000	0.000000
1.151250	0.003181	0.000981	0.000000	0.000000	0.000000	258.497397	5170.408021	350.000000	6199.241981	0.187973	0.764300	0.235700	0.000000	0.000000	0.000000
1.158750	0.003181	0.000981	0.000000	0.000000	0.000000	258.497033	5170.443126	350.000000	6199.241292	0.187972	0.764300	0.235700	0.000000	0.000000	0.000000
1.166250	0.003181	0.000981	0.000000	0.000000	0.000000	258.496690	5170.481981	350.000000	6199.240661	0.187971	0.764300	0.235700	0.000000	0.000000	0.000000
1.173750	0.003181	0.000981	0.000000	0.000000	0.000000	258.496369	5170.524277	350.000000	6199.240074	0.187970	0.764300	0.235700	0.000000	0.000000	0.000000
1.181250	0.003181	0.000981	0.000000	0.000000	0.000000	258.496068	5170.569668	350.000000	6199.239519	0.187969	0.764300	0.235700	0.000000	0.000000	0.000000
1.188750	0.003181	0.000981	0.000000	0.000000	0.000000	258.495789	5170.617779	350.000000	6199.238979	0.187968	0.764300	0.235700	0.000000	0.000000	0.000000
1.196250	0.003181	0.000981	0.000000	0.000000	0.000000	258.495531	5170.668203	350.000000	6199.238436	0.187967	0.764301	0.235700	0.000000	0.000000	0.000000
1.203750	0.003181	0.000981	0.000000	0.000000	0.000000	258.495293	5170.720511	350.000000	6199.237872	0.187966	0.764301	0.235700	0.000000	0.000000	0.000000
1.211250	0.003181	0.000981	0.000000	0.000000	0.000000	258.495076	5170.774247	350.000000	6199.237267	0.187965	0.764301	0.235700	0.000000	0.000000	0.000000
1.218750	0.003181	0.000981	0.000000	0.000000	0.000000	258.494878	5170.828942	350.000000	6199.236600	0.187964	0.764301	0.235700	0.000000	0.000000	0.000000
1.226250	0.003181	0.000981	0.000000	0.000000	0.000000	258.494701	5170.884109	350.000000	6199.235847	0.187963	0.764301	0.235700	0.000000	0.000000	0.000000
1.233750	0.003181	0.000981	0.000000	0.000000	0.000000	258.494543	5170.939253	350.000000	6199.234987	0.187962	0.764301	0.235700	0.000000	0.000000	0.000000
1.241250	0.003181	0.000981	0.000000	0.000000	0.000000	258.494404	5170.993873	350.000000	6199.233996	0.187961	0.764301	0.235700	0.000000	0.000000	0.000000
1.248750	0.003181	0.000981	0.000000	0.000000	0.000000	258.494285	5171.047466	350.000000	6199.232851	0.187960	0.764301	0.235700	0.000000	0.000000	0.000000
1.256250	0.003181	0.000981	0.000000	0.000000	0.000000	258.494184	5171.099533	350.000000	6199.231527	0.187959	0.764301	0.235700	0.000000	0.000000	0.000000
1.263750	0.003180	0.000981	0.000000	0.000000	0.000000	258.494102	5171.149583	350.000000	6199.230002	0.187958	0.764301	0.235700	0.000000	0.000000	0.000000
1.271250	0.003180	0.000981	0.000000	0.000000	0.000000	258.494038	5171.197139	350.000000	6199.228252	0.187957	0.764300	0.235700	0.000000	0.000000	0.000000
1.278750	0.003180	0.000981	0.000000	0.000000	0.000000	258.493992	5171.241740	350.000000	6199.226255	0.187956	0.764300	0.235700	0.000000	0.000000	0.000000
1.286250	0.003180	0.000981	0.000000	0.000000	0.000000	258.493963	5171.282946	350.000000	6199.223991	0.187955	0.764300	0.235700	0.000000	0.000000	0.000000
1.293750	0.003180	0.000981	0.000000	0.000000	0.000000	258.493952	5171.320345	350.000000	6199.221438	0.187955	0.764300	0.235700	0.000000	0.000000	0.000000
1.301250	0.003180	0.000981	0.000000	0.000000	0.000000	258.493958	5171.353552	350.000000	6199.218578	0.187954	0.764300	0.235700	0.000000	0.000000	0.000000
1.308750	0.003180	0.000981	0.000000	0.000000	0.000000	258.493981	5171.382219	350.000000	6199.215393	0.187954	0.764300	0.235700	0.000000	0.000000	0.000000
1.316250	0.003180	0.000981	0.000000	0.000000	0.000000	258.494020	5171.406033	350.000000	6199.211869	0.187953	0.764300	0.235700	0.000000	0.000000	0.000000
1.323750	0.003180	0.000981	0.000000	0.000000	0.000000	258.494075	5171.424723	350.000000	6199.207991	0.187953	0.764300	0.235700	0.000000	0.000000	0.000000
1.331250	0.003180	0.000981	0.000000	0.000000	0.000000	258.494146	5171.438059	350.000000	6199.203749	0.187953	0.764300	0.235700	0.000000	0.000000	0.000000
1.338750	0.003180	0.000981	0.000000	0.000000	0.000000	258.494232	5171.445859	350.000000	6199.199132	0.187953	0.764300	0.235700	0.000000	0.000000	0.000000
1.346250	0.003180	0.000981	0.000000	0.000000	0.000000	258.494334	5171.447988	350.000000	6199.194135	0.187953	0.764300	0.235700	0.000000	0.000000	0.000000
1.353750	0.003180	0.000981	0.000000	0.000000	0.000000	258.494450	5171.444361	350.000000	6199.188753	0.187953	0.764300	0.235700	0.000000	0.000000	0.000000
1.361250	0.003180	0.000981	0.000000	0.000000	0.000000	258.494580	5171.434943	350.000000	6199.182985	0.187953	0.764300	0.235700	0.000000	0.000000	0.000000
1.368750	0.003180	0.000981	0.000000	0.000000	0.000000	258.494725	5171.419752	350.000000	6199.176832	0.187953	0.764300	0.235700	0.000000	0.000000	0.000000
1.376250	0.003180	0.000981	0.000000	0.000000	0.000000	258.494883	5171.398856	350.000000	6199.170296	0.187954	0.764300	0.235700	0.000000	0.000000	0.000000
1.383750	0.003180	0.000981	0.000000	0.000000	0.000000	258.495054	5171.372377	350.000000	6199.163386	0.187955	0.764300	0.235700	0.000000	0.000000	0.000000
1.391250	0.003180	0.000981	0.000000	0.000000	0.000000	258.495239	5171.340487	350.000000	6199.156110	0.187955	0.764300	0.235700	0.000000	0.000000	0.000000
1.398750	0.003180	0.000981	0.000000	0.000000	0.000000	258.495436	5171.303407	350.000000	6199.148479	0.187956	0.764300	0.235700	0.000000	0.000000	0.000000
1.406250	0.003180	0.000981	0.000000	0.000000	0.000000	258.495645	5171.261410	350.000000	6199.140509	0.187957	0.764300	0.235700	0.000000	0.000000	0.000000
1.413750	0.003180	0.000981	0.000000	0.000000	0.000000	258.495867	5171.214814	350.000000	6199.132216	0.187958	0.764300	0.235700	0.000000	0.000000	0.000000
1.421250	0.003180	0.000981	0.000000	0.000000	0.000000	258.496099	5171.163983	350.000000	6199.123620	0.187959	0.764300	0.235700	0.000000	0.000000	0.000000
1.428750	0.003180	0.000981	-0.000000	0.000000	0.000000	258.496343	5171.109326	350.000000	6199.114743	0.187960	0.764300	0.235700	-0.000000	0.000000	0.000000
1.436250	0.003180	0.000981	-0.000000	0.000000	0.000000	258.496598	5171.051294	350.000000	6199.105609	0.187961	0.764299	0.235700	-0.000000	0.000000	0.000000
1.443750	0.003181	0.000981	-0.000000	0.000000	0.000000	258.496863	5170.990394	350.000000	6199.096243	0.187963	0.764299	0.235700	-0.000000	0.000000	0.000000