TITLE = "title"
VARIABLES = "X","rhoN2","rhoO2","rhoNO","rhoN","rhoO","u","T","Tv","P","M","YN2","YO2","YNO","YN","YO"
ZONE I=250, DATAPACKING=POINT
0.003000	0.000241	0.000074	-0.000000	-0.000000	-0.000000	3499.731596	344.857306	298.150001	31.283861	9.428174	0.764300	0.235700	-0.000000	-0.000000	-0.000000
0.009000	0.000247	0.000076	-0.000000	0.000000	-0.000000	3498.754932	348.166900	298.150001	32.360177	9.380638	0.764300	0.235700	-0.000000	0.000000	-0.000000
0.015000	0.000253	0.000078	-0.000000	0.000000	-0.000000	3497.768803	351.507632	298.150002	33.473318	9.333323	0.764300	0.235700	-0.000000	0.000000	-0.000000
0.021000	0.000259	0.000080	-0.000000	0.000000	-0.000000	3496.773274	354.879250	298.150003	34.624351	9.286237	0.764300	0.235700	-0.000000	0.000000	-0.000000
0.027000	0.000265	0.000082	-0.000000	0.000000	-0.000000	3495.768424	358.281464	298.150004	35.814356	9.239385	0.764300	0.235700	-0.000000	0.000000	-0.000000
0.033000	0.000272	0.000084	-0.000000	0.000000	-0.000000	3494.754341	361.713947	298.150005	37.044421	9.192774	0.764300	0.235700	-0.000000	0.000000	-0.000000
0.039000	0.000278	0.000086	-0.000000	0.000000	-0.000000	3493.731128	365.176327	298.150006	38.315637	9.146412	0.764300	0.235700	-0.000000	0.000000	-0.000000
0.045000	0.000285	0.000088	-0.000000	0.000000	-0.000000	3492.698897	368.668192	298.150008	39.629103	9.100304	0.764300	0.235700	-0.000000	0.000000	-0.000000
0.051000	0.000292	0.000090	-0.000000	0.000000	-0.000000	3491.657777	372.189082	298.150009	40.985915	9.054457	0.764300	0.235700	-0.000000	0.000000	-0.000000
0.057000	0.000299	0.000092	-0.000000	0.000000	-0.000000	3490.607910	375.738492	298.150011	42.387167	9.008880	0.764300	0.235700	-0.000000	0.000000	-0.000000
0.063000	0.000307	0.000095	-0.000000	0.000000	-0.000000	3489.549451	379.315868	298.150014	43.833948	8.963579	0.764300	0.235700	-0.000000	0.000000	-0.000000
0.069000	0.000314	0.000097	-0.000000	0.000000	-0.000000	3488.482572	382.920603	298.150016	45.327337	8.918561	0.764300	0.235700	-0.000000	0.000000	-0.000000
0.075000	0.000322	0.000099	-0.000000	0.000000	-0.000000	3487.407461	386.552037	298.150019	46.868400	8.873834	0.764300	0.235700	-0.000000	0.000000	-0.000000
0.081000	0.000329	0.000102	-0.000000	0.000000	-0.000000	3486.324323	390.209455	298.150022	48.458183	8.829406	0.764300	0.235700	-0.000000	0.000000	-0.000000
0.087000	0.000337	0.000104	-0.000000	0.000000	-0.000000	3485.233377	393.892087	298.150026	50.097713	8.785284	0.764300	0.235700	-0.000000	0.000000	-0.000000
0.093000	0.000346	0.000107	-0.000000	0.000000	-0.000000	3484.134864	397.599098	298.150030	51.787986	8.741477	0.764300	0.235700	-0.000000	0.000000	-0.000000
0.099000	0.000354	0.000109	-0.000000	0.000000	-0.000000	3483.029042	401.329596	298.150034	53.529965	8.697993	0.764300	0.235700	-0.000000	0.000000	-0.000000
0.105000	0.000362	0.000112	-0.000000	0.000000	-0.000000	3481.916186	405.082623	298.150040	55.324577	8.654841	0.764300	0.235700	-0.000000	0.000000	-0.000000
0.111000	0.000371	0.000114	-0.000000	0.000000	-0.000000	3480.796596	408.857156	298.150045	57.172702	8.612028	0.764300	0.235700	-0.000000	0.000000	-0.000000
0.117000	0.000380	0.000117	-0.000000	0.000000	-0.000000	3479.670586	412.652103	298.150052	59.075167	8.569563	0.764300	0.235700	-0.000000	0.000000	-0.000000
0.123000	0.000389	0.000120	-0.000000	0.000000	-0.000000	3478.538497	416.466302	298.150059	61.032744	8.527455	0.764300	0.235700	-0.000000	0.000000	-0.000000
0.129000	0.000398	0.000123	-0.000000	0.000000	-0.000000	3477.400689	420.298520	298.150067	63.046134	8.485714	0.764300	0.235700	-0.000000	0.000000	-0.000000
0.135000	0.000407	0.000126	-0.000000	0.000000	-0.000000	3476.257544	424.147449	298.150076	65.115968	8.444347	0.764300	0.235700	-0.000000	0.000000	-0.000000
0.141000	0.000417	0.000129	-0.000000	0.000000	-0.000000	3475.109469	428.011706	298.150086	67.242795	8.403365	0.764300	0.235700	-0.000000	0.000000	-0.000000
0.147000	0.000426	0.000132	-0.000000	0.000000	-0.000000	3473.956893	431.889829	298.150097	69.427071	8.362777	0.764300	0.235700	-0.000000	0.000000	-0.000000
0.153000	0.000436	0.000135	-0.000000	0.000000	-0.000000	3472.800268	435.780278	298.150110	71.669153	8.322592	0.764300	0.235700	-0.000000	0.000000	-0.000000
0.159000	0.000446	0.000138	-0.000000	0.000000	-0.000000	3471.640075	439.681433	298.150123	73.969292	8.282820	0.764300	0.235700	-0.000000	0.000000	-0.000000
0.165000	0.000457	0.000141	-0.000000	0.000000	-0.000000	3470.476815	443.591587	298.150138	76.327618	8.243470	0.764300	0.235700	-0.000000	0.000000	-0.000000
0.171000	0.000467	0.000144	-0.000000	0.000000	-0.000000	3469.311018	447.508956	298.150155	78.744133	8.204553	0.764300	0.235700	-0.000000	0.000000	-0.000000
0.177000	0.000477	0.000147	-0.000000	0.000000	-0.000000	3468.143240	451.431665	298.150173	81.218700	8.166079	0.764300	0.235700	-0.000000	0.000000	-0.000000
0.183000	0.000488	0.000150	-0.000000	0.000000	-0.000000	3466.974060	455.357756	298.150193	83.751037	8.128058	0.764300	0.235700	-0.000000	0.000000	-0.000000
0.189000	0.000499	0.000154	-0.000000	0.000000	-0.000000	3465.804087	459.285185	298.150215	86.340697	8.090500	0.764300	0.235700	-0.000000	0.000000	-0.000000
0.195000	0.000510	0.000157	-0.000000	0.000000	-0.000000	3464.633957	463.211819	298.150239	88.987067	8.053416	0.764300	0.235700	-0.000000	0.000000	-0.000000
0.201000	0.000521	0.000161	-0.000000	0.000000	-0.000000	3463.464330	467.135438	298.150265	91.689351	8.016815	0.764300	0.235700	-0.000000	0.000000	-0.000000
0.207000	0.000532	0.000164	-0.000000	0.000000	-0.000000	3462.295895	471.053734	298.150294	94.446564	7.980710	0.764300	0.235700	-0.000000	0.000000	-0.000000
0.213000	0.000543	0.000168	-0.000000	0.000000	-0.000000	3461.129369	474.964312	298.150325	97.257516	7.945110	0.764300	0.235700	-0.000000	0.000000	-0.000000
0.219000	0.000555	0.000171	-0.000000	0.000000	-0.000000	3459.965494	478.864689	298.150360	100.120807	7.910026	0.764300	0.235700	-0.000000	0.000000	-0.000000
0.225000	0.000566	0.000175	-0.000000	0.000000	-0.000000	3458.805040	482.752295	298.150397	103.034812	7.875470	0.764300	0.235700	-0.000000	0.000000	-0.000000
0.231000	0.000578	0.000178	-0.000000	-0.000000	-0.000000	3457.648804	486.624475	298.150437	105.997674	7.841452	0.764300	0.235700	-0.000000	-0.000000	-0.000000
0.237000	0.000590	0.000182	-0.000000	-0.000000	-0.000000	3456.497607	490.478491	298.150480	109.007295	7.807983	0.764300	0.235700	-0.000000	-0.000000	-0.000000
0.243000	0.000601	0.000185	-0.000000	-0.000000	-0.000000	3455.352299	494.311521	298.150527	112.061326	7.775074	0.764300	0.235700	-0.000000	-0.000000	-0.000000
0.249000	0.000613	0.000189	-0.000000	-0.000000	-0.000000	3454.213752	498.120663	298.150578	115.157158	7.742737	0.764300	0.235700	-0.000000	-0.000000	-0.000000
0.255000	0.000625	0.000193	-0.000000	-0.000000	-0.000000	3453.082864	501.902938	298.150633	118.291917	7.710982	0.764300	0.235700	-0.000000	-0.000000	-0.000000
0.261000	0.000637	0.000197	-0.000000	-0.000000	-0.000000	3451.960556	505.655292	298.150691	121.462457	7.679821	0.764300	0.235700	-0.000000	-0.000000	-0.000000
0.267000	0.000649	0.000200	-0.000000	-0.000000	-0.000000	3450.847773	509.374599	298.150755	124.665355	7.649265	0.764300	0.235700	-0.000000	-0.000000	-0.000000
0.273000	0.000661	0.000204	-0.000000	-0.000000	-0.000000	3449.745478	513.057665	298.150822	127.896906	7.619326	0.764300	0.235700	-0.000000	-0.000000	-0.000000
0.279000	0.000673	0.000208	-0.000000	-0.000000	-0.000000	3448.654659	516.701233	298.150894	131.153120	7.590013	0.764300	0.235700	-0.000000	-0.000000	-0.000000
0.285000	0.000685	0.000211	-0.000000	-0.000000	-0.000000	3447.576318	520.301986	298.150972	134.429724	7.561339	0.764300	0.235700	-0.000000	-0.000000	-0.000000
0.291000	0.000697	0.000215	-0.000000	-0.000000	-0.000000	3446.511477	523.856556	298.151054	137.722161	7.533315	0.764300	0.235700	-0.000000	-0.000000	-0.000000
0.297000	0.000709	0.000219	-0.000000	-0.000000	-0.000000	3445.461173	527.361523	298.151141	141.025591	7.505951	0.764300	0.235700	-0.000000	-0.000000	-0.000000
0.303000	0.000721	0.000222	-0.000000	-0.000000	-0.000000	3444.426458	530.813427	298.151234	144.334897	7.479258	0.764300	0.235700	-0.000000	-0.000000	-0.000000
0.309000	0.000733	0.000226	-0.000000	-0.000000	-0.000000	3443.408393	534.208772	298.151332	147.644691	7.453248	0.764300	0.235700	-0.000000	-0.000000	-0.000000
0.315000	0.000745	0.000230	-0.000000	-0.000000	-0.000000	3442.408050	537.544032	298.151436	150.949323	7.427932	0.764300	0.235700	-0.000000	-0.000000	-0.000000
0.321000	0.000757	0.000233	-0.000000	0.000000	-0.000000	3441.426511	540.815660	298.151546	154.242889	7.403319	0.764300	0.235700	-0.000000	0.000000	-0.000000
0.327000	0.000768	0.000237	-0.000000	-0.000000	-0.000000	3440.464858	544.020096	298.151662	157.519249	7.379420	0.764300	0.235700	-0.000000	-0.000000	-0.000000
0.333000	0.000780	0.000240	-0.000000	-0.000000	-0.000000	3439.524181	547.153773	298.151783	160.772036	7.356246	0.764300	0.235700	-0.000000	-0.000000	-0.000000
0.339000	0.000791	0.000244	-0.000000	-0.000000	-0.000000	3438.605566	550.213126	298.151911	163.994678	7.333807	0.764300	0.235700	-0.000000	-0.000000	-0.000000
0.345000	0.000802	0.000247	-0.000000	-0.000000	-0.000000	3437.710098	553.194604	298.152045	167.180418	7.312112	0.764300	0.235700	-0.000000	-0.000000	-0.000000
0.351000	0.000813	0.000251	-0.000000	-0.000000	-0.000000	3436.838856	556.094676	298.152185	170.322334	7.291173	0.764300	0.235700	-0.000000	-0.000000	-0.000000
0.357000	0.000823	0.000254	-0.000000	-0.000000	-0.000000	3435.992911	558.909840	298.152331	173.413365	7.270997	0.764300	0.235700	-0.000000	-0.000000	-0.000000
0.363000	0.000833	0.000257	-0.000000	-0.000000	-0.000000	3435.173321	561.636636	298.152483	176.446337	7.251595	0.764300	0.235700	-0.000000	-0.000000	-0.000000
0.369000	0.000844	0.000260	-0.000000	-0.000000	-0.000000	3434.381132	564.271652	298.152641	179.413994	7.232975	0.764300	0.235700	-0.000000	-0.000000	-0.000000
0.375000	0.000853	0.000263	-0.000000	-0.000000	-0.000000	3433.617370	566.811537	298.152805	182.309028	7.215146	0.764300	0.235700	-0.000000	-0.000000	-0.000000
0.381000	0.000863	0.000266	-0.000000	-0.000000	-0.000000	3432.883041	569.253011	298.152975	185.124111	7.198117	0.764300	0.235700	-0.000000	-0.000000	-0.000000
0.387000	0.000872	0.000269	-0.000000	-0.000000	-0.000000	3432.179127	571.592874	298.153150	187.851930	7.181896	0.764300	0.235700	-0.000000	-0.000000	-0.000000
0.393000	0.000881	0.000272	-0.000000	-0.000000	-0.000000	3431.506581	573.828016	298.153332	190.485225	7.166491	0.764300	0.235700	-0.000000	-0.000000	-0.000000
0.399000	0.000889	0.000274	-0.000000	-0.000000	-0.000000	3430.866329	575.955428	298.153518	193.016822	7.151908	0.764300	0.235700	-0.000000	-0.000000	-0.000000
0.405000	0.000897	0.000277	-0.000000	0.000000	0.000000	3430.259260	577.972213	298.153710	195.439677	7.138156	0.764300	0.235700	-0.000000	0.000000	0.000000
0.411000	0.000905	0.000279	-0.000000	-0.000000	0.000000	3429.686228	579.875596	298.153907	197.746907	7.125241	0.764300	0.235700	-0.000000	-0.000000	0.000000
0.417000	0.000912	0.000281	-0.000000	-0.000000	-0.000000	3429.148046	581.662929	298.154109	199.931835	7.113169	0.764300	0.235700	-0.000000	-0.000000	-0.000000
0.423000	0.000919	0.000283	-0.000000	-0.000000	0.000000	3428.645486	583.331708	298.154315	201.988028	7.101946	0.764300	0.235700	-0.000000	-0.000000	0.000000
0.429000	0.000925	0.000285	-0.000000	-0.000000	0.000000	3428.179273	584.879577	298.154526	203.909332	7.091578	0.764300	0.235700	-0.000000	-0.000000	0.000000
0.435000	0.000931	0.000287	-0.000000	-0.000000	0.000000	3427.750084	586.304336	298.154741	205.689913	7.082069	0.764300	0.235700	-0.000000	-0.000000	0.000000
0.441000	0.000936	0.000289	-0.000000	-0.000000	0.000000	3427.358546	587.603952	298.154959	207.324290	7.073425	0.764300	0.235700	-0.000000	-0.000000	0.000000
0.447000	0.000941	0.000290	-0.000000	-0.000000	0.000000	3427.005232	588.776568	298.155180	208.807373	7.065649	0.764300	0.235700	-0.000000	-0.000000	0.000000
0.453000	0.000945	0.000291	-0.000000	-0.000000	0.000000	3426.690658	589.820503	298.155405	210.134494	7.058746	0.764300	0.235700	-0.000000	-0.000000	0.000000
0.459000	0.000949	0.000293	-0.000000	-0.000000	0.000000	3426.415287	590.734267	298.155632	211.301439	7.052718	0.764300	0.235700	-0.000000	-0.000000	0.000000
0.465000	0.000952	0.000294	-0.000000	-0.000000	0.000000	3426.179518	591.516560	298.155861	212.304474	7.047567	0.764300	0.235700	-0.000000	-0.000000	0.000000
0.471000	0.000955	0.000294	0.000000	-0.000000	-0.000000	3425.983692	592.166282	298.156092	213.140370	7.043297	0.764300	0.235700	0.000000	-0.000000	-0.000000
0.477000	0.000957	0.000295	0.000000	-0.000000	-0.000000	3425.828086	592.682532	298.156325	213.806427	7.039910	0.764300	0.235700	0.000000	-0.000000	-0.000000
0.483000	0.000959	0.000296	0.000000	-0.000000	-0.000000	3425.712916	593.064617	298.156558	214.300492	7.037405	0.764300	0.235700	0.000000	-0.000000	-0.000000
0.489000	0.000960	0.000296	0.000000	-0.000000	-0.000000	3425.638331	593.312050	298.156793	214.620971	7.035784	0.764300	0.235700	0.000000	-0.000000	-0.000000
0.495000	0.000960	0.000296	0.000000	-0.000000	-0.000000	3425.604419	593.424556	298.157027	214.766843	7.035047	0.764300	0.235700	0.000000	-0.000000	-0.000000
0.501000	0.000960	0.000296	0.000000	-0.000000	-0.000000	3425.611199	593.402068	298.157262	214.737664	7.035195	0.764300	0.235700	0.000000	-0.000000	-0.000000
0.507000	0.000959	0.000296	0.000000	-0.000000	-0.000000	3425.658628	593.244732	298.157495	214.533574	7.036225	0.764300	0.235700	0.000000	-0.000000	-0.000000
0.513000	0.000958	0.000295	0.000000	-0.000000	-0.000000	3425.746598	592.952903	298.157728	214.155292	7.038137	0.764300	0.235700	0.000000	-0.000000	-0.000000
0.519000	0.000956	0.000295	0.000000	-0.000000	-0.000000	3425.874934	592.527144	298.157960	213.604112	7.040929	0.764300	0.235700	0.000000	-0.000000	-0.000000
0.525000	0.000954	0.000294	0.000000	-0.000000	-0.000000	3426.043401	591.968224	298.158190	212.881895	7.044598	0.764300	0.235700	0.000000	-0.000000	-0.000000
0.531000	0.000951	0.000293	0.000000	-0.000000	0.000000	3426.251701	591.277115	298.158418	211.991054	7.049143	0.764300	0.235700	0.000000	-0.000000	0.000000
0.537000	0.000948	0.000292	0.000000	-0.000000	0.000000	3426.499472	590.454988	298.158643	210.934538	7.054559	0.764300	0.235700	0.000000	-0.000000	0.000000
0.543000	0.000944	0.000291	0.000000	-0.000000	0.000000	3426.786296	589.503206	298.158866	209.715812	7.060842	0.764300	0.235700	0.000000	-0.000000	0.000000
0.549000	0.000939	0.000290	0.000000	-0.000000	0.000000	3427.111695	588.423322	298.159085	208.338834	7.067989	0.764300	0.235700	0.000000	-0.000000	0.000000
0.555000	0.000934	0.000288	0.000000	-0.000000	0.000000	3427.475135	587.217070	298.159301	206.808026	7.075996	0.764300	0.235700	0.000000	-0.000000	0.000000
0.561000	0.000929	0.000286	0.000000	-0.000000	-0.000000	3427.876030	585.886358	298.159513	205.128246	7.084855	0.764300	0.235700	0.000000	-0.000000	-0.000000
0.567000	0.000923	0.000285	0.000000	0.000000	-0.000000	3428.313740	584.433264	298.159721	203.304757	7.094563	0.764300	0.235700	0.000000	0.000000	-0.000000
0.573000	0.000916	0.000283	0.000000	0.000000	-0.000000	3428.787579	582.860024	298.159924	201.343192	7.105114	0.764300	0.235700	0.000000	0.000000	-0.000000
0.579000	0.000910	0.000281	0.000000	-0.000000	-0.000000	3429.296812	581.169025	298.160123	199.249521	7.116499	0.764300	0.235700	0.000000	-0.000000	-0.000000
0.585000	0.000902	0.000278	0.000000	-0.000000	0.000000	3429.840661	579.362797	298.160317	197.030008	7.128714	0.764300	0.235700	0.000000	-0.000000	0.000000
0.591000	0.000894	0.000276	0.000000	-0.000000	0.000000	3430.418309	577.444003	298.160506	194.691180	7.141751	0.764300	0.235700	0.000000	-0.000000	0.000000
0.597000	0.000886	0.000273	0.000000	-0.000000	0.000000	3431.028901	575.415429	298.160690	192.239786	7.155602	0.764300	0.235700	0.000000	-0.000000	0.000000
0.603000	0.000878	0.000271	0.000000	-0.000000	0.000000	3431.671545	573.279975	298.160868	189.682756	7.170260	0.764300	0.235700	0.000000	-0.000000	0.000000
0.609000	0.000869	0.000268	0.000000	-0.000000	0.000000	3432.345320	571.040646	298.161040	187.027167	7.185716	0.764300	0.235700	0.000000	-0.000000	0.000000
0.615000	0.000860	0.000265	0.000000	-0.000000	0.000000	3433.049276	568.700538	298.161207	184.280201	7.201961	0.764300	0.235700	0.000000	-0.000000	0.000000
0.621000	0.000850	0.000262	-0.000000	-0.000000	0.000000	3433.782438	566.262834	298.161367	181.449109	7.218988	0.764300	0.235700	-0.000000	-0.000000	0.000000
0.627000	0.000840	0.000259	-0.000000	-0.000000	-0.000000	3434.543808	563.730789	298.161522	178.541176	7.236786	0.764300	0.235700	-0.000000	-0.000000	-0.000000
0.633000	0.000830	0.000256	-0.000000	-0.000000	0.000000	3435.332370	561.107722	298.161671	175.563685	7.255347	0.764300	0.235700	-0.000000	-0.000000	0.000000
0.639000	0.000820	0.000253	-0.000000	-0.000000	0.000000	3436.147091	558.397004	298.161814	172.523882	7.274661	0.764300	0.235700	-0.000000	-0.000000	0.000000
0.645000	0.000809	0.000249	-0.000000	-0.000000	0.000000	3436.986927	555.602053	298.161950	169.428947	7.294718	0.764300	0.235700	-0.000000	-0.000000	0.000000
0.651000	0.000798	0.000246	-0.000000	-0.000000	-0.000000	3437.850823	552.726319	298.162081	166.285963	7.315509	0.764300	0.235700	-0.000000	-0.000000	-0.000000
0.657000	0.000787	0.000243	-0.000000	-0.000000	0.000000	3438.737717	549.773276	298.162206	163.101889	7.337022	0.764300	0.235700	-0.000000	-0.000000	0.000000
0.663000	0.000776	0.000239	-0.000000	-0.000000	-0.000000	3439.646543	546.746417	298.162324	159.883532	7.359248	0.764300	0.235700	-0.000000	-0.000000	-0.000000
0.669000	0.000764	0.000236	-0.000000	-0.000000	-0.000000	3440.576234	543.649240	298.162437	156.637526	7.382176	0.764300	0.235700	-0.000000	-0.000000	-0.000000
0.675000	0.000753	0.000232	-0.000000	-0.000000	0.000000	3441.525723	540.485242	298.162545	153.370313	7.405795	0.764300	0.235700	-0.000000	-0.000000	0.000000
0.681000	0.000741	0.000229	-0.000000	-0.000000	-0.000000	3442.493949	537.257909	298.162646	150.088120	7.430095	0.764300	0.235700	-0.000000	-0.000000	-0.000000
0.687000	0.000729	0.000225	-0.000000	-0.000000	-0.000000	3443.479854	533.970713	298.162742	146.796945	7.455064	0.764300	0.235700	-0.000000	-0.000000	-0.000000
0.693000	0.000717	0.000221	-0.000000	-0.000000	-0.000000	3444.482391	530.627099	298.162833	143.502544	7.480693	0.764300	0.235700	-0.000000	-0.000000	-0.000000
0.699000	0.000706	0.000218	-0.000000	-0.000000	-0.000000	3445.500521	527.230482	298.162918	140.210418	7.506969	0.764300	0.235700	-0.000000	-0.000000	-0.000000
0.705000	0.000694	0.000214	-0.000000	-0.000000	-0.000000	3446.533219	523.784239	298.162998	136.925802	7.533882	0.764300	0.235700	-0.000000	-0.000000	-0.000000
0.711000	0.000682	0.000210	-0.000000	-0.000000	-0.000000	3447.579474	520.291702	298.163074	133.653662	7.561421	0.764300	0.235700	-0.000000	-0.000000	-0.000000
0.717000	0.000669	0.000206	-0.000000	-0.000000	-0.000000	3448.638290	516.756157	298.163144	130.398687	7.589574	0.764300	0.235700	-0.000000	-0.000000	-0.000000
0.723000	0.000657	0.000203	-0.000000	-0.000000	-0.000000	3449.708688	513.180832	298.163210	127.165286	7.618330	0.764300	0.235700	-0.000000	-0.000000	-0.000000
0.729000	0.000645	0.000199	-0.000000	-0.000000	-0.000000	3450.789709	509.568897	298.163272	123.957585	7.647678	0.764300	0.235700	-0.000000	-0.000000	-0.000000
0.735000	0.000633	0.000195	-0.000000	-0.000000	-0.000000	3451.880414	505.923460	298.163330	120.779431	7.677608	0.764300	0.235700	-0.000000	-0.000000	-0.000000
0.741000	0.000621	0.000192	-0.000000	-0.000000	-0.000000	3452.979884	502.247562	298.163383	117.634389	7.708106	0.764300	0.235700	-0.000000	-0.000000	-0.000000
0.747000	0.000609	0.000188	-0.000000	-0.000000	-0.000000	3454.087223	498.544170	298.163433	114.525749	7.739164	0.764300	0.235700	-0.000000	-0.000000	-0.000000
0.753000	0.000598	0.000184	-0.000000	-0.000000	-0.000000	3455.201559	494.816181	298.163479	111.456530	7.770769	0.764300	0.235700	-0.000000	-0.000000	-0.000000
0.759000	0.000586	0.000181	-0.000000	-0.000000	-0.000000	3456.322042	491.066415	298.163522	108.429482	7.802911	0.764300	0.235700	-0.000000	-0.000000	-0.000000
0.765000	0.000574	0.000177	-0.000000	-0.000000	-0.000000	3457.447847	487.297612	298.163561	105.447098	7.835579	0.764300	0.235700	-0.000000	-0.000000	-0.000000
0.771000	0.000562	0.000173	-0.000000	-0.000000	-0.000000	3458.578174	483.512435	298.163598	102.511616	7.868761	0.764300	0.235700	-0.000000	-0.000000	-0.000000
0.777000	0.000551	0.000170	-0.000000	-0.000000	-0.000000	3459.712250	479.713463	298.163632	99.625032	7.902447	0.764300	0.235700	-0.000000	-0.000000	-0.000000
0.783000	0.000540	0.000166	-0.000000	-0.000000	-0.000000	3460.849326	475.903191	298.163663	96.789105	7.936627	0.764300	0.235700	-0.000000	-0.000000	-0.000000
0.789000	0.000528	0.000163	-0.000000	-0.000000	-0.000000	3461.988679	472.084033	298.163691	94.005371	7.971289	0.764300	0.235700	-0.000000	-0.000000	-0.000000
0.795000	0.000517	0.000159	-0.000000	-0.000000	-0.000000	3463.129612	468.258317	298.163717	91.275147	8.006424	0.764300	0.235700	-0.000000	-0.000000	-0.000000
0.801000	0.000506	0.000156	-0.000000	-0.000000	-0.000000	3464.271456	464.428287	298.163741	88.599545	8.042020	0.764300	0.235700	-0.000000	-0.000000	-0.000000
0.807000	0.000495	0.000153	-0.000000	-0.000000	-0.000000	3465.413565	460.596102	298.163763	85.979483	8.078068	0.764300	0.235700	-0.000000	-0.000000	-0.000000
0.813000	0.000485	0.000149	-0.000000	-0.000000	-0.000000	3466.555322	456.763837	298.163783	83.415694	8.114558	0.764300	0.235700	-0.000000	-0.000000	-0.000000
0.819000	0.000474	0.000146	-0.000000	-0.000000	-0.000000	3467.696134	452.933483	298.163801	80.908735	8.151479	0.764300	0.235700	-0.000000	-0.000000	-0.000000
0.825000	0.000463	0.000143	-0.000000	-0.000000	-0.000000	3468.835434	449.106947	298.163818	78.458999	8.188821	0.764300	0.235700	-0.000000	-0.000000	-0.000000
0.831000	0.000453	0.000140	-0.000000	-0.000000	-0.000000	3469.972680	445.286055	298.163833	76.066728	8.226575	0.764300	0.235700	-0.000000	-0.000000	-0.000000
0.837000	0.000443	0.000137	-0.000000	-0.000000	-0.000000	3471.107356	441.472550	298.163846	73.732019	8.264732	0.764300	0.235700	-0.000000	-0.000000	-0.000000
0.843000	0.000433	0.000134	-0.000000	-0.000000	-0.000000	3472.238970	437.668096	298.163859	71.454837	8.303281	0.764300	0.235700	-0.000000	-0.000000	-0.000000
0.849000	0.000581	0.000179	0.000000	0.000000	0.000000	2741.938203	2965.633656	654.934369	649.089079	2.442076	0.764299	0.235643	0.000003	0.000000	0.000055
0.855000	0.002019	0.000621	0.000000	0.000000	0.000002	794.821353	6136.280241	2529.243933	4672.167514	0.491941	0.764282	0.234957	0.000037	0.000001	0.000723
0.861000	0.002462	0.000747	0.000001	0.000000	0.000012	600.433754	5764.424995	3536.730759	5369.715161	0.382758	0.764165	0.231753	0.000272	0.000008	0.003802
0.867000	0.002698	0.000794	0.000005	0.000000	0.000036	529.357853	5409.266847	4110.662842	5556.280709	0.347082	0.763647	0.224740	0.001334	0.000030	0.010248
0.873000	0.002879	0.000813	0.000014	0.000000	0.000070	480.760638	5132.482303	4407.616685	5675.480231	0.322111	0.762515	0.215263	0.003691	0.000062	0.018468
0.879000	0.003021	0.000813	0.000029	0.000000	0.000107	444.496207	4914.921316	4547.534676	5759.953783	0.302880	0.760767	0.204756	0.007362	0.000096	0.027019
0.885000	0.003133	0.000802	0.000050	0.000001	0.000145	416.018051	4742.868903	4598.783278	5823.213463	0.287280	0.758550	0.194206	0.012046	0.000127	0.035071
0.891000	0.003223	0.000785	0.000074	0.000001	0.000180	392.815690	4605.798448	4600.211835	5872.408467	0.274167	0.756048	0.184160	0.017352	0.000153	0.042288
0.897000	0.003294	0.000765	0.000100	0.000001	0.000213	373.347597	4495.502045	4574.135688	5911.790575	0.262840	0.753422	0.174862	0.022930	0.000174	0.048611
0.903000	0.003352	0.000743	0.000127	0.000001	0.000242	356.602462	4405.674912	4533.528234	5944.107921	0.252834	0.750799	0.166392	0.028514	0.000191	0.054104
0.909000	0.003399	0.000721	0.000154	0.000001	0.000267	341.891987	4331.547002	4485.995906	5971.218788	0.243833	0.748263	0.158740	0.033918	0.000204	0.058874
0.915000	0.003439	0.000700	0.000180	0.000001	0.000291	328.737016	4269.539874	4436.005788	5994.410576	0.235613	0.745869	0.151858	0.039024	0.000215	0.063035
0.921000	0.003472	0.000680	0.000204	0.000001	0.000311	316.798175	4216.974491	4386.158203	6014.589752	0.228014	0.743649	0.145679	0.043762	0.000223	0.066687
0.927000	0.003501	0.000662	0.000227	0.000001	0.000330	305.831263	4171.839682	4337.928585	6032.403756	0.220921	0.741619	0.140135	0.048096	0.000230	0.069920
0.933000	0.003526	0.000644	0.000248	0.000001	0.000347	295.657775	4132.616631	4292.108433	6048.321852	0.214248	0.739784	0.135159	0.052017	0.000235	0.072805
0.939000	0.003548	0.000628	0.000267	0.000001	0.000362	286.145119	4098.149112	4249.072017	6062.689519	0.207934	0.738141	0.130691	0.055527	0.000239	0.075402
0.945000	0.003569	0.000614	0.000284	0.000001	0.000377	277.193188	4067.548704	4208.940103	6075.765348	0.201929	0.736684	0.126673	0.058642	0.000242	0.077759
0.951000	0.003587	0.000600	0.000299	0.000001	0.000390	268.725150	4040.125883	4171.681646	6087.746246	0.196196	0.735404	0.123057	0.061380	0.000244	0.079915
0.957000	0.003604	0.000588	0.000313	0.000001	0.000402	260.681059	4015.339883	4137.177471	6098.784796	0.190707	0.734289	0.119798	0.063766	0.000246	0.081902
0.963000	0.003620	0.000577	0.000325	0.000001	0.000413	253.013382	3992.762103	4105.260305	6109.001318	0.185437	0.733327	0.116856	0.065824	0.000247	0.083746
0.969000	0.003636	0.000567	0.000335	0.000001	0.000424	245.683828	3972.049245	4075.739911	6118.492331	0.180369	0.732507	0.114198	0.067580	0.000247	0.085468
0.975000	0.003650	0.000558	0.000344	0.000001	0.000434	238.661079	3952.923485	4048.418749	6127.336561	0.175485	0.731816	0.111791	0.069059	0.000247	0.087086
0.981000	0.003664	0.000549	0.000352	0.000001	0.000444	231.919114	3935.157695	4023.101516	6135.598944	0.170774	0.731244	0.109610	0.070284	0.000247	0.088615
0.987000	0.003677	0.000542	0.000359	0.000001	0.000453	225.436889	3918.565190	3999.602074	6143.342262	0.166224	0.730780	0.107628	0.071279	0.000247	0.090065
0.993000	0.003690	0.000535	0.000364	0.000001	0.000462	219.172100	3902.962682	3977.703808	6150.385067	0.161809	0.730413	0.105822	0.072066	0.000247	0.091452
0.999000	0.003706	0.000529	0.000369	0.000001	0.000471	213.776653	3888.131735	3957.274523	6163.189797	0.158016	0.730135	0.104178	0.072664	0.000246	0.092777
1.005000	0.003725	0.000524	0.000373	0.000001	0.000480	211.026800	3873.966164	3938.495989	6180.170424	0.156166	0.729939	0.102711	0.073085	0.000245	0.094020
1.011000	0.003734	0.000519	0.000375	0.000001	0.000487	210.532873	3860.319568	3920.941167	6180.281774	0.155979	0.729814	0.101386	0.073356	0.000244	0.095200
1.017000	0.003743	0.000514	0.000377	0.000001	0.000494	209.989817	3847.691761	3904.674410	6181.052002	0.155740	0.729749	0.100197	0.073497	0.000243	0.096314
1.023000	0.003752	0.000510	0.000378	0.000001	0.000501	209.491382	3835.912551	3889.556881	6181.722274	0.155523	0.729735	0.099123	0.073529	0.000242	0.097370
1.029000	0.003760	0.000506	0.000379	0.000001	0.000507	209.027168	3824.869034	3875.468816	6182.338108	0.155321	0.729763	0.098150	0.073471	0.000241	0.098374
1.035000	0.003768	0.000502	0.000379	0.000001	0.000513	208.592633	3814.467683	3862.301505	6182.906555	0.155131	0.729826	0.097264	0.073338	0.000240	0.099332
1.041000	0.003776	0.000499	0.000378	0.000001	0.000519	208.183893	3804.631236	3849.957683	6183.434579	0.154953	0.729919	0.096452	0.073142	0.000239	0.100248
1.047000	0.003783	0.000496	0.000378	0.000001	0.000524	207.797752	3795.295258	3838.350947	6183.927764	0.154785	0.730036	0.095707	0.072894	0.000238	0.101126
1.053000	0.003790	0.000493	0.000377	0.000001	0.000529	207.431552	3786.405566	3827.404906	6184.390681	0.154626	0.730172	0.095018	0.072604	0.000237	0.101969
1.059000	0.003797	0.000491	0.000376	0.000001	0.000534	207.083060	3777.916251	3817.052219	6184.827106	0.154474	0.730325	0.094379	0.072279	0.000235	0.102781
1.065000	0.003804	0.000488	0.000375	0.000001	0.000539	206.750391	3769.788143	3807.233620	6185.240186	0.154330	0.730491	0.093785	0.071926	0.000234	0.103564
1.071000	0.003811	0.000486	0.000373	0.000001	0.000544	206.431939	3761.987604	3797.896982	6185.632563	0.154191	0.730667	0.093229	0.071551	0.000233	0.104319
1.077000	0.003817	0.000484	0.000372	0.000001	0.000549	206.126328	3754.485572	3788.996459	6186.006472	0.154058	0.730851	0.092708	0.071158	0.000232	0.105050
1.083000	0.003824	0.000482	0.000370	0.000001	0.000553	205.832373	3747.256800	3780.491700	6186.363815	0.153931	0.731042	0.092217	0.070752	0.000231	0.105758
1.089000	0.003830	0.000481	0.000368	0.000001	0.000558	205.549048	3740.279236	3772.347158	6186.706222	0.153807	0.731237	0.091753	0.070336	0.000230	0.106443
1.095000	0.003836	0.000479	0.000367	0.000001	0.000562	205.275460	3733.533528	3764.531476	6187.035096	0.153688	0.731436	0.091313	0.069913	0.000229	0.107109
1.101000	0.003842	0.000477	0.000365	0.000001	0.000566	205.010825	3727.002611	3757.016944	6187.351654	0.153573	0.731636	0.090895	0.069486	0.000228	0.107755
1.107000	0.003848	0.000476	0.000363	0.000001	0.000570	204.754457	3720.671372	3749.779033	6187.656953	0.153462	0.731838	0.090496	0.069056	0.000227	0.108383
1.113000	0.003853	0.000474	0.000361	0.000001	0.000574	204.505751	3714.526370	3742.795987	6187.951917	0.153354	0.732040	0.090115	0.068625	0.000226	0.108995
1.119000	0.003859	0.000473	0.000359	0.000001	0.000578	204.264168	3708.555601	3736.048465	6188.237358	0.153249	0.732242	0.089749	0.068194	0.000225	0.109590
1.125000	0.003864	0.000472	0.000358	0.000001	0.000581	204.029232	3702.748309	3729.519235	6188.513992	0.153147	0.732443	0.089397	0.067766	0.000224	0.110170
1.131000	0.003870	0.000470	0.000356	0.000001	0.000585	203.800517	3697.094812	3723.192911	6188.782451	0.153048	0.732642	0.089059	0.067341	0.000223	0.110735
1.137000	0.003875	0.000469	0.000354	0.000001	0.000588	203.577639	3691.586371	3717.055715	6189.043297	0.152951	0.732840	0.088732	0.066919	0.000222	0.111286